 Gaussian 16, Revision C.02,

 ----------------------------------------------------------------------
 #p BLYP empiricaldispersion=gd3 6-31+G(2df,p) opt=(cartesian,calcall,m
 axcycles=500) freq scf=(maxcycles=500,xqc,maxconventional=50)
 ----------------------------------------------------------------------

 -----
 Title
 -----
 Symbolic Z-matrix:
 Charge =  3 Multiplicity = 2

 SCF Done:  E(UB-LYP) =  -1306.73754715     A.U. after   19 cycles
 SCF Done:  E(UB-LYP) =  -1306.77765731     A.U. after   14 cycles
 SCF Done:  E(UB-LYP) =  -1306.84354953     A.U. after   16 cycles
 SCF Done:  E(UB-LYP) =  -1306.89827696     A.U. after   16 cycles
 SCF Done:  E(UB-LYP) =  -1306.92972274     A.U. after   15 cycles
 SCF Done:  E(UB-LYP) =  -1306.97182123     A.U. after   16 cycles
 SCF Done:  E(UB-LYP) =  -1306.98283700     A.U. after   16 cycles
 SCF Done:  E(UB-LYP) =  -1307.01331631     A.U. after   16 cycles
 SCF Done:  E(UB-LYP) =  -1307.03128393     A.U. after   16 cycles
 SCF Done:  E(UB-LYP) =  -1307.04315594     A.U. after   16 cycles
 SCF Done:  E(UB-LYP) =  -1307.05993286     A.U. after   17 cycles
 SCF Done:  E(UB-LYP) =  -1307.06143823     A.U. after   14 cycles
 SCF Done:  E(UB-LYP) =  -1307.06153567     A.U. after   13 cycles
 SCF Done:  E(UB-LYP) =  -1307.06154770     A.U. after   12 cycles
 SCF Done:  E(UB-LYP) =  -1307.06154970     A.U. after    9 cycles
 SCF Done:  E(UB-LYP) =  -1307.06154579     A.U. after   10 cycles
 SCF Done:  E(UB-LYP) =  -1307.06154755     A.U. after    8 cycles
 SCF Done:  E(UB-LYP) =  -1307.06154984     A.U. after    3 cycles
 Optimization completed.
    -- Stationary point found.
 Normal termination of Gaussian 16 at Thu May 23 17:33:03 2024.

 ----------------------------------------------------------------------
 #P Geom=AllCheck Guess=TCheck SCRF=Check GenChk UBLYP/6-31+G(2df,p) Fr
 eq
 ----------------------------------------------------------------------

 Structure from the checkpoint file:  "Ti_3_BLYP.chk"
 -----
 Title
 -----
 Charge =  3 Multiplicity = 2

 SCF Done:  E(UB-LYP) =  -1307.06154984     A.U. after    1 cycles

  Exact polarizability:      66.755       0.000      66.743       0.004       0.001      67.531
 Approx polarizability:     101.881      -0.004     101.870       0.006       0.000     106.325

                      1                      2                      3
                      A                      A                      A
 Frequencies --     96.1803               106.1974               109.0382
 Red. masses --      4.7321                 4.3248                 4.3545
 Frc consts  --      0.0258                 0.0287                 0.0305
 IR Inten    --      0.3269                 0.5429                 0.5348

                      4                      5                      6
                      A                      A                      A
 Frequencies --    152.6002               153.1160               154.8074
 Red. masses --      4.7039                 4.7947                 3.4602
 Frc consts  --      0.0645                 0.0662                 0.0489
 IR Inten    --      0.0000                 0.0000                 0.0000

                      7                      8                      9
                      A                      A                      A
 Frequencies --    163.8904               165.3274               165.6842
 Red. masses --      4.3840                 3.8172                 3.8221
 Frc consts  --      0.0694                 0.0615                 0.0618
 IR Inten    --      0.5175                 0.4888                 0.5115

                     10                     11                     12
                      A                      A                      A
 Frequencies --    241.8247               242.5570               246.8121
 Red. masses --      1.1640                 1.1611                 1.0760
 Frc consts  --      0.0401                 0.0402                 0.0386
 IR Inten    --      0.0000                 0.0001                 0.0001

                     13                     14                     15
                      A                      A                      A
 Frequencies --    256.1731               256.4814               334.6290
 Red. masses --      1.0911                 1.0901                 3.5315
 Frc consts  --      0.0422                 0.0423                 0.2330
 IR Inten    --      2.7490                 2.8369                 0.0000

                     16                     17                     18
                      A                      A                      A
 Frequencies --    334.8669               384.0845               399.8000
 Red. masses --      3.5232                 1.4840                 6.0192
 Frc consts  --      0.2328                 0.1290                 0.5669
 IR Inten    --      0.0000                32.0193                 0.0000

                     19                     20                     21
                      A                      A                      A
 Frequencies --    415.1897               419.3117               419.3817
 Red. masses --      2.0853                 4.3801                 4.3814
 Frc consts  --      0.2118                 0.4537                 0.4540
 IR Inten    --      0.6595                 2.3188                 2.3724

                     22                     23                     24
                      A                      A                      A
 Frequencies --    477.4415               520.3438               520.7465
 Red. masses --      1.1744                 1.1384                 1.1386
 Frc consts  --      0.1577                 0.1816                 0.1819
 IR Inten    --      0.0001                 0.0061                 0.0069

                     25                     26                     27
                      A                      A                      A
 Frequencies --    526.6162               526.8456               527.9649
 Red. masses --      1.2297                 1.2297                 1.1573
 Frc consts  --      0.2009                 0.2011                 0.1901
 IR Inten    --    492.0769               492.7677               176.3483

                     28                     29                     30
                      A                      A                      A
 Frequencies --    608.4564               609.1002               637.2519
 Red. masses --      1.1398                 1.1399                 1.2641
 Frc consts  --      0.2486                 0.2492                 0.3024
 IR Inten    --      0.0001                 0.0002               253.5834

                     31                     32                     33
                      A                      A                      A
 Frequencies --    637.7903               644.0259               666.1026
 Red. masses --      1.2626                 1.1592                 1.2771
 Frc consts  --      0.3026                 0.2833                 0.3339
 IR Inten    --    252.0011                 0.0019               281.2109

                     34                     35                     36
                      A                      A                      A
 Frequencies --   1622.2684              1622.6050              1625.0273
 Red. masses --      1.0893                 1.0892                 1.0880
 Frc consts  --      1.6890                 1.6896                 1.6928
 IR Inten    --    239.7553               239.9216                 0.0004

                     37                     38                     39
                      A                      A                      A
 Frequencies --   1625.3976              1627.6670              1639.2705
 Red. masses --      1.0880                 1.0895                 1.0801
 Frc consts  --      1.6935                 1.7006                 1.7101
 IR Inten    --      0.0005               201.2115                 0.0000

                     40                     41                     42
                      A                      A                      A
 Frequencies --   3509.4708              3509.5159              3514.4393
 Red. masses --      1.0433                 1.0433                 1.0439
 Frc consts  --      7.5707                 7.5709                 7.5964
 IR Inten    --      0.0531                 0.0203               696.4726

                     43                     44                     45
                      A                      A                      A
 Frequencies --   3514.4667              3514.6075              3536.1760
 Red. masses --      1.0439                 1.0438                 1.0458
 Frc consts  --      7.5965                 7.5968                 7.7047
 IR Inten    --    689.4179               541.8402                 0.0015

                     46                     47                     48
                      A                      A                      A
 Frequencies --   3581.3963              3581.4577              3581.7418
 Red. masses --      1.0839                 1.0839                 1.0839
 Frc consts  --      8.1909                 8.1912                 8.1927
 IR Inten    --      5.3518                 0.1148               314.7892

                     49                     50                     51
                      A                      A                      A
 Frequencies --   3581.7845              3583.5116              3584.4549
 Red. masses --      1.0839                 1.0839                 1.0838
 Frc consts  --      8.1929                 8.2005                 8.2045
 IR Inten    --    320.2463                 0.5845               886.5017

 - Thermochemistry -
 -------------------
 Temperature   298.150 Kelvin.  Pressure   1.00000 Atm.
 Atom     1 has atomic number 22 and mass  47.94795

 Molecular mass:   156.01133 amu.
 Principal axes and moments of inertia in atomic units:
                           1         2         3
     Eigenvalues --  1226.626151226.844881270.60580
           X            0.99972  -0.02361   0.00002
           Y            0.02361   0.99972   0.00007
           Z           -0.00003  -0.00007   1.00000
 This molecule is an asymmetric top.
 Rotational symmetry number  1.
 Warning -- assumption of classical behavior for rotation
           may cause significant error
 Rotational temperatures (Kelvin)      0.07061     0.07060     0.06817
 Rotational constants (GHZ):           1.47131     1.47104     1.42038
 Zero-point vibrational energy     385651.5 (Joules/Mol)
                                   92.17292 (Kcal/Mol)
 Warning -- explicit consideration of  29 degrees of freedom as
           vibrations may cause significant error
 Vibrational temperatures:    138.38   152.79   156.88   219.56   220.30
          (Kelvin)            222.73   235.80   237.87   238.38   347.93
                              348.99   355.11   368.58   369.02   481.46
                              481.80   552.61   575.22   597.37   603.30
                              603.40   686.93   748.66   749.24   757.68
                              758.01   759.62   875.43   876.36   916.86
                              917.64   926.61   958.37  2334.08  2334.57
                             2338.05  2338.58  2341.85  2358.54  5049.35
                             5049.41  5056.49  5056.53  5056.74  5087.77
                             5152.83  5152.92  5153.33  5153.39  5155.87
                             5157.23

 Zero-point correction=                           0.146887 (Hartree/Particle)
 Thermal correction to Energy=                    0.162524
 Thermal correction to Enthalpy=                  0.163468
 Thermal correction to Gibbs Free Energy=         0.106944
 Sum of electronic and zero-point Energies=          -1306.914663
 Sum of electronic and thermal Energies=             -1306.899026
 Sum of electronic and thermal Enthalpies=           -1306.898082
 Sum of electronic and thermal Free Energies=        -1306.954606

                     E (Thermal)             CV                S
                      KCal/Mol        Cal/Mol-Kelvin    Cal/Mol-Kelvin
 Total                  101.985             55.791            118.965
 Electronic               0.000              0.000              1.377
 Translational            0.889              2.981             41.044
 Rotational               0.889              2.981             29.038
 Vibrational            100.208             49.829             47.506
 Vibration     1          0.603              1.952              3.530
 Vibration     2          0.605              1.944              3.337
 Vibration     3          0.606              1.942              3.286
 Vibration     4          0.619              1.900              2.640
 Vibration     5          0.619              1.899              2.633
 Vibration     6          0.620              1.897              2.612
 Vibration     7          0.623              1.887              2.504
 Vibration     8          0.624              1.885              2.488
 Vibration     9          0.624              1.885              2.484
 Vibration    10          0.658              1.776              1.789
 Vibration    11          0.659              1.775              1.784
 Vibration    12          0.661              1.768              1.753
 Vibration    13          0.666              1.752              1.688
 Vibration    14          0.666              1.752              1.686
 Vibration    15          0.716              1.606              1.238
 Vibration    16          0.716              1.606              1.237
 Vibration    17          0.753              1.504              1.023
 Vibration    18          0.766              1.471              0.963
 Vibration    19          0.779              1.437              0.908
 Vibration    20          0.782              1.428              0.894
 Vibration    21          0.782              1.428              0.894
 Vibration    22          0.834              1.300              0.717
 Vibration    23          0.875              1.205              0.609
 Vibration    24          0.876              1.204              0.608
 Vibration    25          0.882              1.191              0.595
 Vibration    26          0.882              1.191              0.594
 Vibration    27          0.883              1.188              0.592
 Vibration    28          0.967              1.014              0.435
 Vibration    29          0.968              1.013              0.434

 Optimization completed.
    -- Stationary point found.
 Normal termination of Gaussian 16 at Thu May 23 17:34:33 2024.
 Gaussian 16:  ES64L-G16RevC.02  7-Dec-2021

 ----------------------------------------------------------------------
 #p BLYP empiricaldispersion=gd3 scf=(maxcycles=500,xqc,maxconventional
 =50) scrf=(cpcm,solvent=water) geom=allcheck guess=read chkbasis
 ----------------------------------------------------------------------

 Structure from the checkpoint file:  "Ti_3_BLYP.chk_solvated"
 -----
 Title
 -----
 Charge =  3 Multiplicity = 2

                         Standard orientation:
 ---------------------------------------------------------------------
 Center     Atomic      Atomic             Coordinates (Angstroms)
 Number     Number       Type             X           Y           Z
 ---------------------------------------------------------------------
      1         22           0       -0.000000   -0.000008   -0.000001
      2          8           0        0.768881   -1.564094    1.182697
      3          1           0        1.162981   -1.500453    2.084293
      4          8           0        1.737965   -0.118397   -1.184223
      5          1           0        1.879021    0.253432   -2.086482
      6          8           0       -0.972857   -1.447755   -1.180848
      7          1           0       -1.758085   -1.983483   -0.917719
      8          8           0       -0.768864    1.564087   -1.182705
      9          1           0       -0.840064    2.512422   -0.921150
     10          8           0       -1.737956    0.118396    1.184233
     11          1           0       -1.878990   -0.253384    2.086529
     12          8           0        0.972827    1.447772    1.180845
     13          1           0        1.758101    1.983450    0.917763
     14          1           0        0.722442    1.757341    2.082898
     15          1           0        2.594964   -0.530967   -0.923149
     16          1           0        0.840191   -2.512416    0.921097
     17          1           0       -2.594950    0.530985    0.923161
     18          1           0       -0.722543   -1.757263   -2.082945
     19          1           0       -1.163025    1.500448   -2.084269
 ---------------------------------------------------------------------

 SCF Done:  E(UB-LYP) =  -1307.69418948     A.U. after   11 cycles

 The electronic state is 2-A.
 Alpha  occ. eigenvalues -- -177.93586 -19.64416 -18.91296 -18.91296 -18.91292
 Alpha  occ. eigenvalues --  -18.91292 -18.91291 -18.91291 -16.44261 -16.44260
 Alpha  occ. eigenvalues --  -16.43095  -2.36323  -1.52191  -1.52190  -1.50811
 Alpha  occ. eigenvalues --   -1.02199  -1.01503  -1.01501  -1.01464  -1.01461
 Alpha  occ. eigenvalues --   -1.01362  -0.57226  -0.56632  -0.56503  -0.56500
 Alpha  occ. eigenvalues --   -0.56438  -0.56436  -0.50908  -0.49188  -0.49186
 Alpha  occ. eigenvalues --   -0.46928  -0.46926  -0.46594  -0.37948  -0.37943
 Alpha  occ. eigenvalues --   -0.36534  -0.36530  -0.36370  -0.35889  -0.23353
 Alpha virt. eigenvalues --   -0.21087  -0.21086  -0.14216  -0.14213  -0.08193
 Alpha virt. eigenvalues --   -0.04272  -0.04257  -0.04256   0.00280   0.00284
 Alpha virt. eigenvalues --    0.01879   0.04093   0.04193   0.05084   0.05084

  Beta  occ. eigenvalues -- -177.93580 -19.63444 -18.91304 -18.91304 -18.91300
  Beta  occ. eigenvalues --  -18.91300 -18.91300 -18.91300 -16.43754 -16.43753
  Beta  occ. eigenvalues --  -16.41841  -2.33071  -1.50011  -1.50008  -1.45592
  Beta  occ. eigenvalues --   -1.02194  -1.01506  -1.01504  -1.01458  -1.01456
  Beta  occ. eigenvalues --   -1.01338  -0.57148  -0.56604  -0.56485  -0.56482
  Beta  occ. eigenvalues --   -0.56415  -0.56412  -0.50791  -0.49060  -0.49057
  Beta  occ. eigenvalues --   -0.46923  -0.46922  -0.46532  -0.37857  -0.37852
  Beta  occ. eigenvalues --   -0.36547  -0.36542  -0.36374  -0.35725
  Beta virt. eigenvalues --   -0.19327  -0.19326  -0.16232  -0.12943  -0.12941
  Beta virt. eigenvalues --   -0.08113  -0.04240  -0.04239  -0.04224   0.00367
  Beta virt. eigenvalues --    0.00372   0.01911   0.04161   0.04353   0.05098

 Mulliken charges and spin densities:
               1          2
     1  Ti   1.576203   1.030047
     2  O   -0.617442  -0.008133
     3  H    0.430298   0.001358
     4  O   -0.617437  -0.008139
     5  H    0.430238   0.001358
     6  O   -0.617524  -0.008135
     7  H    0.424497   0.001768
     8  O   -0.617451  -0.008130
     9  H    0.424529   0.001771
    10  O   -0.617441  -0.008139
    11  H    0.430241   0.001358
    12  O   -0.617529  -0.008133
    13  H    0.424498   0.001768
    14  H    0.430237   0.001357
    15  H    0.424508   0.001769
    16  H    0.424530   0.001771
    17  H    0.424510   0.001769
    18  H    0.430238   0.001358
    19  H    0.430296   0.001358
 Sum of Mulliken charges =   3.00000   1.00000

 Dipole moment (field-independent basis, Debye):
    X=              0.0001    Y=              0.0001    Z=              0.0001  Tot=              0.0001
 Quadrupole moment (field-independent basis, Debye-Ang):
   XX=             -7.6849   YY=             -7.6908   ZZ=             -5.6336
   XY=             -0.0099   XZ=              0.0050   YZ=              0.0019

 Normal termination of Gaussian 16 at Thu May 23 17:35:16 2024.
