 Gaussian 16, Revision C.02,

 ----------------------------------------------------------------------
 #p B3LYP empiricaldispersion=gd3 6-31+G(2df,p) opt=(cartesian,calcall,
 maxcycles=500) freq scf=(maxcycles=500,xqc,maxconventional=50)
 ----------------------------------------------------------------------

 -----
 Title
 -----
 Symbolic Z-matrix:
 Charge =  3 Multiplicity = 4

 SCF Done:  E(UB3LYP) =  -1501.87347191     A.U. after   16 cycles
 SCF Done:  E(UB3LYP) =  -1501.89897066     A.U. after   13 cycles
 SCF Done:  E(UB3LYP) =  -1501.94055932     A.U. after   16 cycles
 SCF Done:  E(UB3LYP) =  -1501.96677271     A.U. after   16 cycles
 SCF Done:  E(UB3LYP) =  -1502.01116921     A.U. after   16 cycles
 SCF Done:  E(UB3LYP) =  -1502.04333625     A.U. after   16 cycles
 SCF Done:  E(UB3LYP) =  -1502.04730734     A.U. after   16 cycles
 SCF Done:  E(UB3LYP) =  -1502.05813775     A.U. after   16 cycles
 SCF Done:  E(UB3LYP) =  -1502.05666532     A.U. after   16 cycles
 SCF Done:  E(UB3LYP) =  -1502.06169151     A.U. after   16 cycles
 SCF Done:  E(UB3LYP) =  -1502.07700238     A.U. after   15 cycles
 SCF Done:  E(UB3LYP) =  -1502.07739061     A.U. after   14 cycles
 SCF Done:  E(UB3LYP) =  -1502.07761468     A.U. after   14 cycles
 SCF Done:  E(UB3LYP) =  -1502.07765453     A.U. after   13 cycles
 SCF Done:  E(UB3LYP) =  -1502.07766462     A.U. after   12 cycles
 SCF Done:  E(UB3LYP) =  -1502.07766310     A.U. after   10 cycles
 SCF Done:  E(UB3LYP) =  -1502.07765673     A.U. after    7 cycles
 SCF Done:  E(UB3LYP) =  -1502.07766271     A.U. after    6 cycles
 Optimization completed.
    -- Stationary point found.
 Normal termination of Gaussian 16 at Thu May 23 13:28:50 2024.

 ----------------------------------------------------------------------
 #P Geom=AllCheck Guess=TCheck SCRF=Check GenChk UB3LYP/6-31+G(2df,p) F
 req
 ----------------------------------------------------------------------

 Structure from the checkpoint file:  "Cr_3_B3LYP.chk"
 -----
 Title
 -----
 Charge =  3 Multiplicity = 4

 SCF Done:  E(UB3LYP) =  -1502.07766271     A.U. after    1 cycles

  Exact polarizability:      57.460      -0.002      57.457       0.002      -0.001      57.457
 Approx polarizability:      74.010      -0.004      74.005       0.003      -0.006      74.011

                      1                      2                      3
                      A                      A                      A
 Frequencies --    146.1649               147.3495               147.7941
 Red. masses --      5.2247                 5.2179                 5.2295
 Frc consts  --      0.0658                 0.0667                 0.0673
 IR Inten    --      7.7505                 7.5945                 7.6397

                      4                      5                      6
                      A                      A                      A
 Frequencies --    171.7779               172.0673               172.7418
 Red. masses --      5.1516                 5.1534                 5.1591
 Frc consts  --      0.0896                 0.0899                 0.0907
 IR Inten    --      0.0002                 0.0004                 0.0005

                      7                      8                      9
                      A                      A                      A
 Frequencies --    209.1709               209.3624               209.7555
 Red. masses --      4.8551                 4.8517                 4.8607
 Frc consts  --      0.1252                 0.1253                 0.1260
 IR Inten    --      0.7793                 0.7604                 0.7469

                     10                     11                     12
                      A                      A                      A
 Frequencies --    256.3399               257.6351               327.5148
 Red. masses --      1.0078                 1.0079                 1.0358
 Frc consts  --      0.0390                 0.0394                 0.0655
 IR Inten    --      0.0035                 0.0023                 0.0170

                     13                     14                     15
                      A                      A                      A
 Frequencies --    328.6204               329.0095               392.8624
 Red. masses --      1.0363                 1.0362                 5.7399
 Frc consts  --      0.0659                 0.0661                 0.5220
 IR Inten    --      0.0018                 0.0026                 0.0000

                     16                     17                     18
                      A                      A                      A
 Frequencies --    392.9385               446.7693               447.2680
 Red. masses --      5.7397                 1.4858                 1.5204
 Frc consts  --      0.5221                 0.1747                 0.1792
 IR Inten    --      0.0000               231.0481               233.8103

                     19                     20                     21
                      A                      A                      A
 Frequencies --    447.4191               449.4741               450.2047
 Red. masses --      1.5323                 1.1054                 1.0934
 Frc consts  --      0.1807                 0.1316                 0.1306
 IR Inten    --    231.7214                 7.7494                 0.9128

                     22                     23                     24
                      A                      A                      A
 Frequencies --    450.2906               451.3292               478.1431
 Red. masses --      1.0938                 5.8874                 1.0721
 Frc consts  --      0.1307                 0.7066                 0.1444
 IR Inten    --      0.6062                 0.0178                25.1594

                     25                     26                     27
                      A                      A                      A
 Frequencies --    478.8731               478.9805               479.3902
 Red. masses --      2.2912                 2.0553                 2.2190
 Frc consts  --      0.3096                 0.2778                 0.3005
 IR Inten    --    262.4230               244.3196               265.9690

                     28                     29                     30
                      A                      A                      A
 Frequencies --    668.0927               668.6809               668.8334
 Red. masses --      1.1589                 1.1587                 1.1587
 Frc consts  --      0.3048                 0.3053                 0.3054
 IR Inten    --      0.0553                 0.0014                 0.0040

                     31                     32                     33
                      A                      A                      A
 Frequencies --    705.5641               706.0557               706.2704
 Red. masses --      1.3038                 1.3030                 1.3026
 Frc consts  --      0.3824                 0.3827                 0.3828
 IR Inten    --    203.6605               203.3333               203.8247

                     34                     35                     36
                      A                      A                      A
 Frequencies --   1646.8203              1646.8516              1646.9105
 Red. masses --      1.0974                 1.0974                 1.0974
 Frc consts  --      1.7535                 1.7536                 1.7537
 IR Inten    --    218.5014               218.5821               218.4939

                     37                     38                     39
                      A                      A                      A
 Frequencies --   1650.3850              1650.4173              1664.0368
 Red. masses --      1.0934                 1.0934                 1.0837
 Frc consts  --      1.7547                 1.7547                 1.7679
 IR Inten    --      0.0045                 0.0190                 0.0006

                     40                     41                     42
                      A                      A                      A
 Frequencies --   3643.2704              3643.5356              3643.7216
 Red. masses --      1.0436                 1.0436                 1.0435
 Frc consts  --      8.1616                 8.1627                 8.1630
 IR Inten    --     38.2168               146.9624               639.3731

                     43                     44                     45
                      A                      A                      A
 Frequencies --   3644.0562              3644.9569              3667.5758
 Red. masses --      1.0435                 1.0436                 1.0455
 Frc consts  --      8.1646                 8.1688                 8.2856
 IR Inten    --    644.9326               511.9893                 0.2542

                     46                     47                     48
                      A                      A                      A
 Frequencies --   3720.5777              3720.8763              3721.1306
 Red. masses --      1.0864                 1.0864                 1.0865
 Frc consts  --      8.8606                 8.8620                 8.8636
 IR Inten    --      6.7402                 9.0813               120.4266

                     49                     50                     51
                      A                      A                      A
 Frequencies --   3721.6327              3721.9399              3722.8539
 Red. masses --      1.0866                 1.0866                 1.0866
 Frc consts  --      8.8676                 8.8690                 8.8728
 IR Inten    --    591.3842               589.0824               477.7078

 - Thermochemistry -
 -------------------
 Temperature   298.150 Kelvin.  Pressure   1.00000 Atm.
 Atom     1 has atomic number 24 and mass  51.94051

 Molecular mass:   160.00390 amu.
 Principal axes and moments of inertia in atomic units:
                           1         2         3
     Eigenvalues --  1128.220181128.361231128.51237
           X            0.99495  -0.10003   0.00854
           Y            0.10021   0.99466  -0.02478
           Z           -0.00602   0.02551   0.99966
 This molecule is an asymmetric top.
 Rotational symmetry number  1.
 Warning -- assumption of classical behavior for rotation
           may cause significant error
 Rotational temperatures (Kelvin)      0.07677     0.07676     0.07675
 Rotational constants (GHZ):           1.59964     1.59944     1.59922
 Zero-point vibrational energy     401791.5 (Joules/Mol)
                                   96.03047 (Kcal/Mol)
 Warning -- explicit consideration of  27 degrees of freedom as
           vibrations may cause significant error
 Vibrational temperatures:    210.30   212.00   212.64   247.15   247.57
          (Kelvin)            248.54   300.95   301.23   301.79   368.82
                              370.68   471.22   472.81   473.37   565.24
                              565.35   642.80   643.52   643.74   646.69
                              647.74   647.87   649.36   687.94   688.99
                              689.15   689.74   961.24   962.08   962.30
                             1015.15  1015.86  1016.17  2369.41  2369.45
                             2369.54  2374.54  2374.58  2394.18  5241.85
                             5242.24  5242.50  5242.98  5244.28  5276.82
                             5353.08  5353.51  5353.88  5354.60  5355.04
                             5356.36

 Zero-point correction=                           0.153034 (Hartree/Particle)
 Thermal correction to Energy=                    0.167549
 Thermal correction to Enthalpy=                  0.168493
 Thermal correction to Gibbs Free Energy=         0.114471
 Sum of electronic and zero-point Energies=          -1501.924628
 Sum of electronic and thermal Energies=             -1501.910114
 Sum of electronic and thermal Enthalpies=           -1501.909169
 Sum of electronic and thermal Free Energies=        -1501.963191

                     E (Thermal)             CV                S
                      KCal/Mol        Cal/Mol-Kelvin    Cal/Mol-Kelvin
 Total                  105.139             54.236            113.699
 Electronic               0.000              0.000              2.755
 Translational            0.889              2.981             41.119
 Rotational               0.889              2.981             28.754
 Vibrational            103.361             48.274             41.071
 Vibration     1          0.617              1.907              2.722
 Vibration     2          0.617              1.906              2.706
 Vibration     3          0.617              1.905              2.700
 Vibration     4          0.626              1.877              2.416
 Vibration     5          0.626              1.877              2.413
 Vibration     6          0.626              1.876              2.405
 Vibration     7          0.642              1.827              2.051
 Vibration     8          0.642              1.826              2.049
 Vibration     9          0.642              1.826              2.046
 Vibration    10          0.666              1.752              1.687
 Vibration    11          0.667              1.750              1.678
 Vibration    12          0.711              1.621              1.272
 Vibration    13          0.712              1.618              1.267
 Vibration    14          0.712              1.618              1.265
 Vibration    15          0.760              1.485              0.989
 Vibration    16          0.760              1.485              0.989
 Vibration    17          0.806              1.368              0.806
 Vibration    18          0.806              1.367              0.804
 Vibration    19          0.807              1.367              0.804
 Vibration    20          0.808              1.362              0.797
 Vibration    21          0.809              1.360              0.795
 Vibration    22          0.809              1.360              0.795
 Vibration    23          0.810              1.358              0.792
 Vibration    24          0.835              1.299              0.715
 Vibration    25          0.835              1.297              0.713
 Vibration    26          0.835              1.297              0.713
 Vibration    27          0.836              1.296              0.712

 Normal termination of Gaussian 16 at Thu May 23 13:30:45 2024.
 Gaussian 16:  ES64L-G16RevC.02  7-Dec-2021

 ----------------------------------------------------------------------
 #p B3LYP empiricaldispersion=gd3 scf=(maxcycles=500,xqc,maxconventiona
 l=50) scrf=(cpcm,solvent=water) geom=allcheck guess=read chkbasis
 ----------------------------------------------------------------------

 Structure from the checkpoint file:  "Cr_3_B3LYP.chk_solvated"
 -----
 Title
 -----
 Charge =  3 Multiplicity = 4

                         Standard orientation:
 ---------------------------------------------------------------------
 Center     Atomic      Atomic             Coordinates (Angstroms)
 Number     Number       Type             X           Y           Z
 ---------------------------------------------------------------------
      1         24           0        0.000007    0.000048    0.000049
      2          8           0       -0.311951    1.975313   -0.151751
      3          1           0       -0.982601    2.408414   -0.712670
      4          8           0        1.482419    0.335023    1.308717
      5          1           0        1.389318    0.393163    2.278241
      6          8           0       -1.314921   -0.091711    1.511481
      7          1           0       -1.563898   -0.894503    2.006652
      8          8           0        0.311889   -1.975283    0.151863
      9          1           0       -0.184328   -2.671477   -0.318365
     10          8           0       -1.482227   -0.334460   -1.308853
     11          1           0       -1.388589   -0.393109   -2.278293
     12          8           0        1.314680    0.091113   -1.511687
     13          1           0        1.569364    0.895109   -2.002334
     14          1           0        1.811215   -0.661104   -1.885381
     15          1           0        2.423373    0.467309    1.086902
     16          1           0        0.179779    2.671284    0.323441
     17          1           0       -2.423207   -0.466984   -1.087431
     18          1           0       -1.816170    0.659030    1.881724
     19          1           0        0.986463   -2.408247    0.708187
 ---------------------------------------------------------------------

 SCF Done:  E(UB3LYP) =  -1502.71961956     A.U. after    9 cycles

 The electronic state is 4-A.
 Alpha  occ. eigenvalues -- -215.94067 -24.95815 -21.24606 -21.24606 -21.24606
 Alpha  occ. eigenvalues --  -19.27234 -19.27234 -19.27231 -19.27231 -19.27225
 Alpha  occ. eigenvalues --  -19.27224  -3.13211  -2.07699  -2.07698  -2.07697
 Alpha  occ. eigenvalues --   -1.13690  -1.12548  -1.12548  -1.12542  -1.12450
 Alpha  occ. eigenvalues --   -1.12447  -0.64628  -0.64623  -0.64615  -0.64253
 Alpha  occ. eigenvalues --   -0.64251  -0.64242  -0.59907  -0.57261  -0.57259
 Alpha  occ. eigenvalues --   -0.54192  -0.54191  -0.54186  -0.47229  -0.47225
 Alpha  occ. eigenvalues --   -0.47215  -0.43758  -0.43751  -0.43747  -0.39425
 Alpha  occ. eigenvalues --   -0.39421  -0.39417
 Alpha virt. eigenvalues --   -0.18313  -0.18310  -0.06310  -0.02218  -0.02216
 Alpha virt. eigenvalues --   -0.02211   0.02994   0.03447   0.03452   0.06780
 Alpha virt. eigenvalues --    0.06784   0.06794   0.07217   0.07219   0.07224

  Beta  occ. eigenvalues -- -215.94014 -24.91156 -21.20705 -21.20705 -21.20704
  Beta  occ. eigenvalues --  -19.27203 -19.27202 -19.27200 -19.27200 -19.27193
  Beta  occ. eigenvalues --  -19.27192  -3.00062  -1.93855  -1.93854  -1.93853
  Beta  occ. eigenvalues --   -1.13556  -1.12408  -1.12408  -1.12402  -1.12330
  Beta  occ. eigenvalues --   -1.12326  -0.64348  -0.64343  -0.64335  -0.64180
  Beta  occ. eigenvalues --   -0.64177  -0.64169  -0.59661  -0.56668  -0.56665
  Beta  occ. eigenvalues --   -0.54275  -0.54275  -0.54269  -0.44001  -0.43996
  Beta  occ. eigenvalues --   -0.43986  -0.43249  -0.43242  -0.43238
  Beta virt. eigenvalues --   -0.16510  -0.16507  -0.16504  -0.13016  -0.13014
  Beta virt. eigenvalues --   -0.06185  -0.02165  -0.02163  -0.02158   0.03043
  Beta virt. eigenvalues --    0.03644   0.03649   0.06915   0.06919   0.06929

 Mulliken charges and spin densities:
               1          2
     1  Cr   1.672363   2.967594
     2  O   -0.667123   0.004076
     3  H    0.444241   0.000665
     4  O   -0.667433   0.004061
     5  H    0.444415   0.000663
     6  O   -0.667419   0.004084
     7  H    0.444274   0.000664
     8  O   -0.667194   0.004062
     9  H    0.444235   0.000668
    10  O   -0.667404   0.004062
    11  H    0.444402   0.000663
    12  O   -0.667437   0.004073
    13  H    0.444356   0.000666
    14  H    0.444302   0.000665
    15  H    0.444327   0.000668
    16  H    0.444221   0.000667
    17  H    0.444327   0.000668
    18  H    0.444291   0.000667
    19  H    0.444258   0.000664
 Sum of Mulliken charges =   3.00000   3.00000

 Dipole moment (field-independent basis, Debye):
    X=              0.0019    Y=             -0.0018    Z=              0.0023  Tot=              0.0035
 Quadrupole moment (field-independent basis, Debye-Ang):
   XX=             -8.1004   YY=             -8.1039   ZZ=             -8.0882
   XY=             -0.0095   XZ=              0.0009   YZ=             -0.0040

 Normal termination of Gaussian 16 at Thu May 23 13:31:03 2024.
