 Gaussian 16, Revision C.02,

 ----------------------------------------------------------------------
 #p BLYP empiricaldispersion=gd3 6-31+G(2df,p) opt=(cartesian,calcall,m
 axcycles=500) freq scf=(maxcycles=500,xqc,maxconventional=50)
 ----------------------------------------------------------------------

 -----
 Title
 -----
 Symbolic Z-matrix:
 Charge =  3 Multiplicity = 4

 SCF Done:  E(UB-LYP) =  -1501.78253989     A.U. after   16 cycles
 SCF Done:  E(UB-LYP) =  -1501.80985020     A.U. after   11 cycles
 SCF Done:  E(UB-LYP) =  -1501.85408341     A.U. after   14 cycles
 SCF Done:  E(UB-LYP) =  -1501.88064260     A.U. after   14 cycles
 SCF Done:  E(UB-LYP) =  -1501.92585044     A.U. after   14 cycles
 SCF Done:  E(UB-LYP) =  -1501.96175800     A.U. after   14 cycles
 SCF Done:  E(UB-LYP) =  -1501.96975450     A.U. after   15 cycles
 SCF Done:  E(UB-LYP) =  -1501.98011724     A.U. after   14 cycles
 SCF Done:  E(UB-LYP) =  -1501.97807910     A.U. after   13 cycles
 SCF Done:  E(UB-LYP) =  -1501.98246544     A.U. after   13 cycles
 SCF Done:  E(UB-LYP) =  -1501.99734315     A.U. after    4 cycles
 SCF Done:  E(UB-LYP) =  -1501.99734393     A.U. after    3 cycles
 SCF Done:  E(UB-LYP) =  -1501.99692047     A.U. after   12 cycles
 SCF Done:  E(UB-LYP) =  -1501.99736262     A.U. after   11 cycles
 SCF Done:  E(UB-LYP) =  -1501.99742729     A.U. after   10 cycles
 SCF Done:  E(UB-LYP) =  -1501.99743914     A.U. after   10 cycles
 SCF Done:  E(UB-LYP) =  -1501.99743969     A.U. after    8 cycles
 SCF Done:  E(UB-LYP) =  -1501.99744818     A.U. after    8 cycles
 Optimization completed.
    -- Stationary point found.
 Normal termination of Gaussian 16 at Thu May 23 13:43:14 2024.

 ----------------------------------------------------------------------
 #P Geom=AllCheck Guess=TCheck SCRF=Check GenChk UBLYP/6-31+G(2df,p) Fr
 eq
 ----------------------------------------------------------------------

 Structure from the checkpoint file:  "Cr_3_BLYP.chk"
 -----
 Title
 -----
 Charge =  3 Multiplicity = 4

 SCF Done:  E(UB-LYP) =  -1501.99744818     A.U. after    1 cycles

  Exact polarizability:      64.231      -0.001      64.228       0.001      -0.001      64.221
 Approx polarizability:      99.639       0.001      99.630      -0.001       0.002      99.627

                      1                      2                      3
                      A                      A                      A
 Frequencies --    138.5548               139.4479               139.5853
 Red. masses --      5.9726                 6.0100                 6.0074
 Frc consts  --      0.0676                 0.0689                 0.0690
 IR Inten    --     11.7024                11.7595                11.7366

                      4                      5                      6
                      A                      A                      A
 Frequencies --    157.8912               158.4716               158.9557
 Red. masses --      5.3210                 5.3297                 5.3187
 Frc consts  --      0.0782                 0.0789                 0.0792
 IR Inten    --      0.0001                 0.0011                 0.0011

                      7                      8                      9
                      A                      A                      A
 Frequencies --    198.9563               199.1274               199.5219
 Red. masses --      4.6541                 4.6611                 4.6183
 Frc consts  --      0.1085                 0.1089                 0.1083
 IR Inten    --      3.0759                 3.0373                 2.9855

                     10                     11                     12
                      A                      A                      A
 Frequencies --    254.3669               254.7407               311.2068
 Red. masses --      1.0078                 1.0078                 1.0592
 Frc consts  --      0.0384                 0.0385                 0.0604
 IR Inten    --      0.0008                 0.0014                 0.0025

                     13                     14                     15
                      A                      A                      A
 Frequencies --    311.6949               311.8890               376.2539
 Red. masses --      1.0596                 1.0597                 5.7721
 Frc consts  --      0.0607                 0.0607                 0.4814
 IR Inten    --      0.0111                 0.0041                 0.0001

                     16                     17                     18
                      A                      A                      A
 Frequencies --    376.5757               397.2669               397.5876
 Red. masses --      5.7729                 1.1133                 1.1142
 Frc consts  --      0.4823                 0.1035                 0.1038
 IR Inten    --      0.0001               402.7329               401.7829

                     19                     20                     21
                      A                      A                      A
 Frequencies --    398.0573               403.4308               403.5585
 Red. masses --      1.1155                 1.0613                 1.0610
 Frc consts  --      0.1041                 0.1018                 0.1018
 IR Inten    --    401.3563                 0.3398                 0.2002

                     22                     23                     24
                      A                      A                      A
 Frequencies --    403.9536               428.7100               449.5496
 Red. masses --      1.0615                 5.9895                 4.7846
 Frc consts  --      0.1021                 0.6486                 0.5697
 IR Inten    --      0.2912                 0.0001                72.5369

                     25                     26                     27
                      A                      A                      A
 Frequencies --    449.6628               449.9773               468.5453
 Red. masses --      4.7675                 4.8129                 1.0079
 Frc consts  --      0.5680                 0.5742                 0.1304
 IR Inten    --     73.7307                71.3911                 0.0071

                     28                     29                     30
                      A                      A                      A
 Frequencies --    645.6019               645.9802               646.3530
 Red. masses --      1.1567                 1.1569                 1.1565
 Frc consts  --      0.2841                 0.2844                 0.2847
 IR Inten    --      0.0066                 0.0013                 0.0017

                     31                     32                     33
                      A                      A                      A
 Frequencies --    683.7537               684.1011               684.4234
 Red. masses --      1.2973                 1.2969                 1.2964
 Frc consts  --      0.3573                 0.3576                 0.3578
 IR Inten    --    160.5298               160.4380               160.2657

                     34                     35                     36
                      A                      A                      A
 Frequencies --   1600.3651              1600.5559              1600.7208
 Red. masses --      1.0977                 1.0977                 1.0977
 Frc consts  --      1.6564                 1.6568                 1.6572
 IR Inten    --    181.2246               181.1720               181.1619

                     37                     38                     39
                      A                      A                      A
 Frequencies --   1605.5366              1605.7200              1620.3754
 Red. masses --      1.0926                 1.0927                 1.0834
 Frc consts  --      1.6595                 1.6599                 1.6761
 IR Inten    --      0.0007                 0.0000                 0.0000

                     40                     41                     42
                      A                      A                      A
 Frequencies --   3518.9268              3518.9500              3518.9552
 Red. masses --      1.0431                 1.0431                 1.0431
 Frc consts  --      7.6103                 7.6104                 7.6104
 IR Inten    --    655.7956               649.6528               656.5415

                     43                     44                     45
                      A                      A                      A
 Frequencies --   3519.1624              3519.1728              3541.5877
 Red. masses --      1.0432                 1.0432                 1.0449
 Frc consts  --      7.6121                 7.6122                 7.7216
 IR Inten    --      2.9555                 4.3980                 0.0004

                     46                     47                     48
                      A                      A                      A
 Frequencies --   3599.1008              3599.1343              3599.1472
 Red. masses --      1.0865                 1.0865                 1.0865
 Frc consts  --      8.2924                 8.2926                 8.2927
 IR Inten    --      0.1413                 0.5821                 0.2248

                     49                     50                     51
                      A                      A                      A
 Frequencies --   3599.9176              3599.9556              3599.9652
 Red. masses --      1.0867                 1.0867                 1.0867
 Frc consts  --      8.2975                 8.2977                 8.2977
 IR Inten    --    535.3082               535.3751               535.9348

 - Thermochemistry -
 -------------------
 Temperature   298.150 Kelvin.  Pressure   1.00000 Atm.
 Atom     1 has atomic number 24 and mass  51.94051

 Molecular mass:   160.00390 amu.
 Principal axes and moments of inertia in atomic units:
                           1         2         3
     Eigenvalues --  1147.853811148.030221148.28323
           X            0.99986  -0.01625   0.00372
           Y            0.01630   0.99977  -0.01421
           Z           -0.00348   0.01427   0.99989
 This molecule is an asymmetric top.
 Rotational symmetry number  1.
 Warning -- assumption of classical behavior for rotation
           may cause significant error
 Rotational temperatures (Kelvin)      0.07546     0.07545     0.07543
 Rotational constants (GHZ):           1.57227     1.57203     1.57169
 Zero-point vibrational energy     386962.0 (Joules/Mol)
                                   92.48615 (Kcal/Mol)
 Warning -- explicit consideration of  27 degrees of freedom as
           vibrations may cause significant error
 Vibrational temperatures:    199.35   200.63   200.83   227.17   228.01
          (Kelvin)            228.70   286.25   286.50   287.07   365.98
                              366.52   447.76   448.46   448.74   541.35
                              541.81   571.58   572.04   572.72   580.45
                              580.63   581.20   616.82   646.80   646.96
                              647.42   674.13   928.88   929.42   929.96
                              983.77   984.27   984.73  2302.57  2302.84
                             2303.08  2310.01  2310.27  2331.36  5062.95
                             5062.98  5062.99  5063.29  5063.30  5095.55
                             5178.30  5178.35  5178.37  5179.48  5179.53
                             5179.55

 Zero-point correction=                           0.147386 (Hartree/Particle)
 Thermal correction to Energy=                    0.162583
 Thermal correction to Enthalpy=                  0.163527
 Thermal correction to Gibbs Free Energy=         0.108067
 Sum of electronic and zero-point Energies=          -1501.850062
 Sum of electronic and thermal Energies=             -1501.834865
 Sum of electronic and thermal Enthalpies=           -1501.833921
 Sum of electronic and thermal Free Energies=        -1501.889381

                     E (Thermal)             CV                S
                      KCal/Mol        Cal/Mol-Kelvin    Cal/Mol-Kelvin
 Total                  102.022             55.734            116.725
 Electronic               0.000              0.000              2.755
 Translational            0.889              2.981             41.119
 Rotational               0.889              2.981             28.805
 Vibrational            100.245             49.773             44.046
 Vibration     1          0.614              1.915              2.824
 Vibration     2          0.615              1.914              2.811
 Vibration     3          0.615              1.914              2.810
 Vibration     4          0.621              1.894              2.575
 Vibration     5          0.621              1.893              2.568
 Vibration     6          0.621              1.893              2.562
 Vibration     7          0.637              1.841              2.143
 Vibration     8          0.637              1.841              2.141
 Vibration     9          0.638              1.841              2.138
 Vibration    10          0.665              1.755              1.700
 Vibration    11          0.665              1.755              1.698
 Vibration    12          0.700              1.652              1.356
 Vibration    13          0.700              1.651              1.353
 Vibration    14          0.700              1.651              1.352
 Vibration    15          0.747              1.521              1.054
 Vibration    16          0.747              1.520              1.053
 Vibration    17          0.764              1.476              0.973
 Vibration    18          0.764              1.475              0.972
 Vibration    19          0.764              1.474              0.970
 Vibration    20          0.769              1.463              0.950
 Vibration    21          0.769              1.462              0.950
 Vibration    22          0.769              1.462              0.948
 Vibration    23          0.790              1.408              0.863
 Vibration    24          0.808              1.362              0.797
 Vibration    25          0.809              1.362              0.797
 Vibration    26          0.809              1.361              0.796
 Vibration    27          0.826              1.320              0.742

 Normal termination of Gaussian 16 at Thu May 23 13:44:48 2024.
 Gaussian 16:  ES64L-G16RevC.02  7-Dec-2021

 ----------------------------------------------------------------------
 #p BLYP empiricaldispersion=gd3 scf=(maxcycles=500,xqc,maxconventional
 =50) scrf=(cpcm,solvent=water) geom=allcheck guess=read chkbasis
 ----------------------------------------------------------------------

 Structure from the checkpoint file:  "Cr_3_BLYP.chk_solvated"
 -----
 Title
 -----
 Charge =  3 Multiplicity = 4

                         Standard orientation:
 ---------------------------------------------------------------------
 Center     Atomic      Atomic             Coordinates (Angstroms)
 Number     Number       Type             X           Y           Z
 ---------------------------------------------------------------------
      1         24           0        0.000021   -0.000022   -0.000001
      2          8           0        0.963770   -1.447710   -1.033255
      3          1           0        0.659940   -1.855445   -1.876900
      4          8           0        1.470822   -0.012930    1.388813
      5          1           0        2.287316    0.537800    1.370712
      6          8           0        1.000895    1.413137   -1.045715
      7          1           0        0.907609    2.387543   -0.935555
      8          8           0       -0.963972    1.447687    1.033059
      9          1           0       -1.819883    1.864843    0.780672
     10          8           0       -1.470609    0.012674   -1.389025
     11          1           0       -2.283788   -0.543058   -1.374543
     12          8           0       -1.000965   -1.412782    1.046144
     13          1           0       -0.905700   -2.387290    0.938633
     14          1           0       -1.667144   -1.245318    1.752164
     15          1           0        1.494595   -0.570953    2.200198
     16          1           0        1.818060   -1.867311   -0.779441
     17          1           0       -1.497214    0.575038   -2.197321
     18          1           0        1.664999    1.246256   -1.753827
     19          1           0       -0.658820    1.857815    1.875066
 ---------------------------------------------------------------------

 SCF Done:  E(UB-LYP) =  -1502.63718452     A.U. after    9 cycles

 The electronic state is 4-A.
 Alpha  occ. eigenvalues -- -214.74709 -24.48651 -20.86037 -20.86037 -20.86036
 Alpha  occ. eigenvalues --  -18.92017 -18.92016 -18.92008 -18.92007 -18.92003
 Alpha  occ. eigenvalues --  -18.92002  -2.93277  -1.92041  -1.92040  -1.92039
 Alpha  occ. eigenvalues --   -1.03203  -1.02217  -1.02208  -1.02202  -1.02110
 Alpha  occ. eigenvalues --   -1.02102  -0.57862  -0.57854  -0.57848  -0.57620
 Alpha  occ. eigenvalues --   -0.57613  -0.57606  -0.53005  -0.50730  -0.50724
 Alpha  occ. eigenvalues --   -0.47859  -0.47853  -0.47846  -0.39257  -0.39248
 Alpha  occ. eigenvalues --   -0.39243  -0.37241  -0.37229  -0.37225  -0.30945
 Alpha  occ. eigenvalues --   -0.30941  -0.30938
 Alpha virt. eigenvalues --   -0.21743  -0.21740  -0.08380  -0.04220  -0.04215
 Alpha virt. eigenvalues --   -0.04209   0.00535   0.00543   0.02331   0.04304
 Alpha virt. eigenvalues --    0.04306   0.04313   0.04611   0.04612   0.04618

  Beta  occ. eigenvalues -- -214.74675 -24.44717 -20.83024 -20.83023 -20.83023
  Beta  occ. eigenvalues --  -18.91968 -18.91968 -18.91959 -18.91959 -18.91954
  Beta  occ. eigenvalues --  -18.91954  -2.82479  -1.81568  -1.81567  -1.81566
  Beta  occ. eigenvalues --   -1.03056  -1.02072  -1.02062  -1.02056  -1.01979
  Beta  occ. eigenvalues --   -1.01970  -0.57713  -0.57705  -0.57699  -0.57558
  Beta  occ. eigenvalues --   -0.57550  -0.57543  -0.52680  -0.50101  -0.50094
  Beta  occ. eigenvalues --   -0.47825  -0.47818  -0.47811  -0.37649  -0.37637
  Beta  occ. eigenvalues --   -0.37632  -0.36890  -0.36878  -0.36873
  Beta virt. eigenvalues --   -0.20621  -0.20619  -0.20616  -0.17189  -0.17186
  Beta virt. eigenvalues --   -0.08213  -0.04153  -0.04148  -0.04142   0.00690
  Beta virt. eigenvalues --    0.00698   0.02397   0.04402   0.04404   0.04411

 Mulliken charges and spin densities:
               1          2
     1  Cr   1.451454   2.926351
     2  O   -0.608012   0.010873
     3  H    0.432966   0.000702
     4  O   -0.607637   0.010891
     5  H    0.432903   0.000705
     6  O   -0.607697   0.010850
     7  H    0.432836   0.000706
     8  O   -0.608077   0.010854
     9  H    0.432975   0.000707
    10  O   -0.607666   0.010882
    11  H    0.432909   0.000705
    12  O   -0.607690   0.010853
    13  H    0.432846   0.000706
    14  H    0.433011   0.000701
    15  H    0.432949   0.000701
    16  H    0.432976   0.000706
    17  H    0.432950   0.000701
    18  H    0.433026   0.000703
    19  H    0.432978   0.000704
 Sum of Mulliken charges =   3.00000   3.00000

 Dipole moment (field-independent basis, Debye):
    X=              0.0003    Y=             -0.0008    Z=             -0.0004  Tot=              0.0009
 Quadrupole moment (field-independent basis, Debye-Ang):
   XX=             -7.8620   YY=             -7.8542   ZZ=             -7.8405
   XY=             -0.0006   XZ=              0.0052   YZ=             -0.0066

 Normal termination of Gaussian 16 at Thu May 23 13:45:23 2024.
