   * xtb version 6.6.0 (conda-forge) compiled by 'runner@Mac-1676020848589.local' on 2023-02-10
          program call               : xtb monosubstituted_Sulfate_solvated_radius_5_solvated_radius_7.xyz --opt extreme --gfn2 --chrg 0 --uhf 5 --alpb water

   ID    Z sym.   atoms
    1   26 Fe     1
    2    8 O      2, 4-7, 10, 13, 16, 19, 22, 25, 28, 31, 34, 37, 40, 43, 46,
                  49, 52, 55, 58, 61, 64, 67, 70, 73, 76, 79, 82, 85, 88, 91,
                  94, 97, 100, 103, 106, 109, 112, 115, 118, 121, 124, 127
    3   16 S      3
    4    1 H      8, 9, 11, 12, 14, 15, 17, 18, 20, 21, 23, 24, 26, 27, 29,
                  30, 32, 33, 35, 36, 38, 39, 41, 42, 44, 45, 47, 48, 50, 51,
                  53, 54, 56, 57, 59, 60, 62, 63, 65, 66, 68, 69, 71, 72, 74,
                  75, 77, 78, 80, 81, 83, 84, 86, 87, 89, 90, 92, 93, 95, 96,
                  98, 99, 101, 102, 104, 105, 107, 108, 110, 111, 113, 114,
                  116, 117, 119, 120, 122, 123, 125, 126, 128, 129

      * Solvation model:               ALPB
        Solvent                        water
        Solvent mass                       1.8000E+01 g/mol
          :  Hamiltonian                  GFN2-xTB          :
 * total energy  :  -230.6546010 Eh     change        0.3504681E-09 Eh
 * total energy  :  -230.9354219 Eh     change       -0.2808209E+00 Eh
 * total energy  :  -231.0515723 Eh     change       -0.1161505E+00 Eh
 * total energy  :  -231.1082751 Eh     change       -0.5670276E-01 Eh
 * total energy  :  -231.1616681 Eh     change       -0.5339303E-01 Eh
 * total energy  :  -231.2117522 Eh     change       -0.5008410E-01 Eh
 * total energy  :  -231.2465869 Eh     change       -0.3483470E-01 Eh
 * total energy  :  -231.2695422 Eh     change       -0.2295526E-01 Eh
 * total energy  :  -231.2942782 Eh     change       -0.2473598E-01 Eh
 * total energy  :  -231.3067286 Eh     change       -0.1245042E-01 Eh
 * total energy  :  -231.7521730 Eh     change       -0.5074073E-06 Eh
 * total energy  :  -231.7521733 Eh     change       -0.2652354E-06 Eh
 * total energy  :  -231.7521734 Eh     change       -0.1536353E-06 Eh
 * total energy  :  -231.7521736 Eh     change       -0.1467530E-06 Eh
 * total energy  :  -231.7521737 Eh     change       -0.1051334E-06 Eh
 * total energy  :  -231.7521737 Eh     change       -0.1511467E-07 Eh
 * total energy  :  -231.7521738 Eh     change       -0.9039132E-07 Eh
 * total energy  :  -231.7521739 Eh     change       -0.6188486E-07 Eh
 * total energy  :  -231.7521739 Eh     change       -0.4525134E-08 Eh
   *** GEOMETRY OPTIMIZATION CONVERGED AFTER 700 ITERATIONS ***

 final structure:
================
129
 xtb: 6.6.0 (conda-forge)
Fe          -0.29377308217613        0.02330498899345       -0.53628036979571
O            0.36321605394807        2.46166998085184       -0.56942247779302
S            0.20737468517376        3.78546870823815       -0.03076432397564
O           -1.01912073614956        4.42915512933003       -0.56414776287292
O            0.09505834435435        3.75486223788453        1.44358638095398
O            1.34946935242375        4.64646228970074       -0.39714455765693
O            1.76062957958527        0.27948423326181        0.89328132015665
H            1.34901773403003        0.07675588782584        1.75988686521390
H            2.01854169380618        1.21022027488053        0.87660267978865
O            0.03885226928923       -2.07584895001762        0.73702918934002
H            0.18250943253423       -1.78053608726970        1.65111685206874
H            0.92909789590445       -2.25485957153475        0.36786547929405
O           -2.57023038735070       -0.64477779780891        0.06285542496932
H           -2.80361121827122       -1.51404341655958       -0.32718539653991
H           -3.32009819891994       -0.05832641125501       -0.07583397515043
O           -1.03119410457455        1.28376462859418        1.50470698529888
H           -0.56048504802460        2.12095053477931        1.54222136323369
H           -1.15191394947755        0.95670595704968        2.42326281421465
O           -0.81846597753551       -1.77956003622156       -2.21104072003349
H           -0.85206599192602       -1.43665414402465       -3.11282921682534
H           -0.18615528800158       -2.52245725742804       -2.21013934796435
O            0.78394362804373        6.77029808980789        1.07420562717707
H            1.00146176392043        5.98931360859062        0.52838862366928
H            1.51154033187077        7.40719521036621        0.93288193602558
O           -2.31472259971712        4.32687818899348        2.46263804762893
H           -1.43485250852045        4.10468852230408        2.10211710434683
H           -2.52940266682881        5.18197105949251        2.06283779827471
O           -0.17089924705872        3.68490228355473       -2.97162083114534
H           -0.36235692389815        3.98414923877188       -2.07066790803357
H           -0.66685146233515        4.26420894347486       -3.58119087515460
O            2.82673378829832        2.82259335032875        0.88640566133480
H            2.86161487143594        3.23006130897644        1.76810202383495
H            2.29400492140583        3.42028720010172        0.34236000431649
O           -1.42882352166094        1.22695858751635       -2.45051837782438
H           -0.82633421968401        1.96934763330186       -2.59474364972724
H           -2.10494384270674        1.57489328062635       -1.83995590542809
O            7.65418819187401        3.52927537733777       -3.62042525250885
H            6.90214412053852        3.18388889218243       -4.11229745964096
H            7.30394036862264        4.24127196257419       -3.06121718265763
O           -1.55420532528408        0.39389737851618        4.01520796214945
H           -2.23576648496798       -0.19720180630912        3.60912141104501
H           -2.02988643716827        1.17415891352383        4.33978094732543
O            1.45691949569857        0.12503898329283       -4.70590688711471
H            1.86739569585905       -0.51722705891851       -5.28937482811319
H            0.48732741496719       -0.01979422696880       -4.75687870183508
O            3.90002951146537       -1.20779263346791        1.39858505958459
H            4.71535104682323       -0.73483441169627        1.18962077511014
H            3.15413820751996       -0.58158222167415        1.19622166004478
O           -3.31553141924419       -0.99938818452262        2.56768130569753
H           -2.81476024304238       -0.89937952684410        1.71473932491526
H           -4.04916451861942       -0.38432995568559        2.46104972028257
O            1.71282779208102       -0.01809855136956       -1.98471042218015
H            1.60326050308293       -0.07113172899612       -2.95219212587368
H            2.02040465771097        0.87768191842955       -1.82221761557679
O            0.71302910833020       -0.85755920929556        3.06617191374249
H            1.47780770364487       -1.16240315001547        3.58388312601081
H            0.05546060434245       -0.46105224071662        3.65052835471329
O           -2.92186477570903       -3.04511886188543       -1.11794548285531
H           -2.32989706538625       -3.65638969949801       -0.63617137617176
H           -2.29635848065573       -2.57735370020780       -1.71396154622906
O            2.36488791038585       -2.31357386777673       -0.61584345798845
H            3.03322858818169       -2.14402086279718        0.06541068503888
H            2.24701300406639       -1.47454107438945       -1.09802757776853
O           -0.86084583368686       -4.43214914899245        0.02096163877391
H           -0.33815738000809       -4.43839778862971       -0.80113767340454
H           -0.62470727557007       -3.55296239686575        0.42177479232564
O            2.91388445520734        8.59701962628480        0.89696236892913
H            3.66642916660756        8.27315759268181        1.40373745293077
H            2.71702930005341        9.48313845938613        1.22022012022779
O           -1.96209558755864        6.54984869742601        0.76748493228886
H           -1.10526564215009        6.91482368443444        1.04326360901848
H           -1.70577967863892        5.79690247978138        0.19721372903299
O           -1.81009210558102        5.42369744917910       -4.43322021207109
H           -1.68592115459003        6.36869550959734       -4.31152351286894
H           -2.75438298664892        5.24467581788132       -4.36618549431609
O            2.09179669539057        4.18632691000203        3.20450522292261
H            1.80949819222691        3.87162441734758        4.07115191984342
H            1.30966314889648        4.13963563539754        2.62412765730053
O           -2.70830842416272        2.31646489372198       -0.35059537550389
H           -2.17945591047564        3.12248764992878       -0.41491071113542
H           -2.31495397968561        1.82913168332002        0.40179296738418
O            6.34627834282931        5.44026241420389       -1.93708600983611
H            6.28754369451131        5.22801759674473       -1.00025570023706
H            5.48108109832007        5.76501681304038       -2.20417038635924
O           -2.85017728442974        2.76397482409905        4.68176552109046
H           -2.63268479053786        3.36199021470314        5.40103996408470
H           -2.76490561070277        3.28420355464944        3.86356698500902
O           -1.19018648390101       -0.35096528567218       -4.59190496747034
H           -1.86265814995892       -0.25083222096236       -5.26731337365976
H           -1.39604280363444        0.28169304666874       -3.86871097129460
O            6.21486642163896        0.27121068805623        0.62866766584610
H            6.66738457124023        0.90807716276152        1.18669932279147
H            6.30155296857722        0.57330788655704       -0.28040822855796
O           -5.28994500546161        0.08468819290902        0.69026270223076
H           -6.19588781338133        0.38580815587433        0.63783414947812
H           -5.30951069648128       -0.89970437606316        0.66363331259103
O            2.34895960775830        2.45395839633102       -3.27943087068423
H            2.08464742860121        1.78355259894495       -3.93402651102902
H            1.54181939457155        2.94601050096071       -3.07965857367120
O            1.58494690517120        1.40750581771072        8.14783194124256
H            2.24610556724975        0.91733064980268        7.64819382778716
H            0.75528242359467        0.92735048878549        8.05804649973894
O           -6.40251117313753       -0.16349034347953       -4.39798524001482
H           -6.19655988239964       -0.93590324367451       -3.85990689022441
H           -6.10558504040034        0.60661463057060       -3.90307855990832
O            5.78135757200378       -3.29064452658950       -4.09774713292988
H            5.84404855965206       -2.35858426085317       -3.86558768991272
H            5.86627555966846       -3.78833308722672       -3.27833167870261
O           -1.41926740023694       -4.83316693453788        6.02560624476797
H           -0.67785932483476       -4.88686124156395        5.41309834876307
H           -2.09872335758073       -4.30900222263592        5.58894858006162
O           -2.38642944582820       -6.10784662931619       -5.39925319043234
H           -2.47682177604340       -6.39933253613683       -4.48591621240587
H           -2.60904881198398       -5.17105428986433       -5.41560764884993
O            3.12933415628523       -1.83423971097283        3.93144819727478
H            3.19415942002243       -2.79095535433142        3.98877651104783
H            3.50061011615993       -1.59914088299888        3.05095622267869
O           -4.92713195649850       -2.60733677717811        0.80246038820513
H           -4.35475347996913       -2.86545724748505        0.05721117155611
H           -4.32260673147580       -2.44212274264319        1.54582499768320
O            0.83980140995197       -3.94934028255471       -2.09033296868078
H            1.31711897350442       -4.42543741440586       -2.77057088216271
H            1.50163337241239       -3.48191552516939       -1.54111846665705
O            1.11253522448497       -6.00859429972325        1.25440994078284
H            0.62200130134822       -6.83151539961801        1.33264992527107
H            0.45946728332070       -5.37349598103430        0.89375518891384
O           -1.79949291888428       -6.91229805592677        0.97609420867505
H           -2.52521311598721       -6.74327559292621        1.58238112615079
H           -1.56507647946460       -6.04585263247029        0.59372295708118

          :  Hamiltonian                  GFN2-xTB          :
         :: total energy            -231.752173869038 Eh    ::
         :: gradient norm              0.000046787310 Eh/a0 ::
         :: HOMO-LUMO gap              6.913244342536 eV    ::
         :: SCC energy              -233.107130688849 Eh    ::
         :: -> dispersion             -0.100800963940 Eh    ::
         :: -> Gsolv                  -0.495248816738 Eh    ::
         :: repulsion energy           1.347406466476 Eh    ::

    * Orbital Energies and Occupations

         #    Occupation            Energy/Eh            Energy/eV
      -------------------------------------------------------------
         1        2.0000           -0.7423542             -20.2005
       ...           ...                  ...                  ...
       173        2.0000           -0.4028778             -10.9629
       174        2.0000           -0.4025419             -10.9537
       175        2.0000           -0.4005907             -10.9006
       176        2.0000           -0.3996119             -10.8740
       177        2.0000           -0.3978668             -10.8265
       178        2.0000           -0.3967298             -10.7956
       179        2.0000           -0.3961329             -10.7793
       180        2.0000           -0.3952969             -10.7566
       181        1.8187           -0.3162981              -8.6069
       182        1.1379           -0.3131243              -8.5205
       183        1.0421           -0.3118961              -8.4871
       184        1.0013           -0.3085819              -8.3969
       185        1.0000           -0.3040559              -8.2738 (HOMO)
       186                         -0.0499989              -1.3605 (LUMO)
       187                         -0.0269155              -0.7324
       188                          0.0203337               0.5533
       189                          0.0265798               0.7233
       190                          0.0389098               1.0588
       191                          0.0493462               1.3428
       192                          0.0528615               1.4384
       193                          0.0637121               1.7337
       194                          0.0690998               1.8803
       195                          0.0744379               2.0256
       196                          0.0761752               2.0728
       ...                                ...                  ...
       280                          1.3486199              36.6978
      -------------------------------------------------------------
                  HL-Gap            0.2540571 Eh            6.9132 eV

     #   Z          covCN         q      C6AA      α(0)
     1  26 Fe       0.602     1.200   410.536    58.678
     2   8 O        0.919    -0.779    30.898     7.454
     3  16 S        3.473     2.019    81.901    15.232
     4   8 O        0.860    -0.955    36.690     8.121
     5   8 O        0.860    -0.927    35.707     8.012
     6   8 O        0.860    -0.968    37.180     8.175
     7   8 O        1.672    -0.612    25.436     6.809
     8   1 H        0.803     0.370     0.543     1.158
     9   1 H        0.805     0.318     0.671     1.286
    10   8 O        1.696    -0.624    25.711     6.846
    11   1 H        0.804     0.364     0.557     1.173
    12   1 H        0.803     0.368     0.548     1.163
    13   8 O        1.720    -0.615    25.483     6.816
    14   1 H        0.803     0.381     0.522     1.135
    15   1 H        0.805     0.349     0.591     1.207
    16   8 O        1.676    -0.630    25.877     6.868
    17   1 H        0.805     0.291     0.748     1.359
    18   1 H        0.803     0.371     0.541     1.155
    19   8 O        1.672    -0.619    25.605     6.831
    20   1 H        0.805     0.352     0.583     1.199
    21   1 H        0.804     0.371     0.542     1.156
    22   8 O        1.607    -0.685    27.303     7.052
    23   1 H        0.804     0.282     0.776     1.384
    24   1 H        0.803     0.340     0.613     1.230
    25   8 O        1.608    -0.667    26.836     6.992
    26   1 H        0.803     0.305     0.705     1.319
    27   1 H        0.804     0.324     0.653     1.270
    28   8 O        1.608    -0.658    26.627     6.964
    29   1 H        0.825     0.276     0.795     1.399
    30   1 H        0.803     0.350     0.588     1.205
    31   8 O        1.609    -0.653    26.503     6.948
    32   1 H        0.804     0.345     0.600     1.217
    33   1 H        0.819     0.274     0.801     1.405
    34   8 O        1.665    -0.618    25.591     6.829
    35   1 H        0.805     0.324     0.652     1.268
    36   1 H        0.804     0.350     0.588     1.204
    37   8 O        1.609    -0.707    27.885     7.127
    38   1 H        0.805     0.360     0.566     1.182
    39   1 H        0.804     0.328     0.643     1.259
    40   8 O        1.606    -0.689    27.430     7.069
    41   1 H        0.801     0.358     0.570     1.187
    42   1 H        0.804     0.320     0.663     1.279
    43   8 O        1.608    -0.700    27.712     7.105
    44   1 H        0.805     0.357     0.573     1.189
    45   1 H        0.803     0.354     0.580     1.196
    46   8 O        1.605    -0.686    27.350     7.058
    47   1 H        0.805     0.314     0.682     1.297
    48   1 H        0.801     0.366     0.554     1.169
    49   8 O        1.606    -0.689    27.433     7.069
    50   1 H        0.801     0.376     0.531     1.145
    51   1 H        0.805     0.325     0.651     1.267
    52   8 O        1.699    -0.609    25.364     6.800
    53   1 H        0.804     0.363     0.558     1.174
    54   1 H        0.805     0.325     0.650     1.267
    55   8 O        1.609    -0.653    26.483     6.946
    56   1 H        0.804     0.339     0.614     1.230
    57   1 H        0.805     0.339     0.615     1.232
    58   8 O        1.606    -0.713    28.065     7.150
    59   1 H        0.803     0.344     0.604     1.220
    60   1 H        0.803     0.368     0.547     1.162
    61   8 O        1.608    -0.673    27.008     7.014
    62   1 H        0.804     0.343     0.604     1.221
    63   1 H        0.804     0.361     0.563     1.179
    64   8 O        1.604    -0.707    27.887     7.127
    65   1 H        0.804     0.347     0.594     1.211
    66   1 H        0.801     0.376     0.531     1.145
    67   8 O        1.610    -0.710    27.988     7.140
    68   1 H        0.805     0.369     0.545     1.159
    69   1 H        0.805     0.370     0.543     1.158
    70   8 O        1.607    -0.679    27.159     7.034
    71   1 H        0.804     0.329     0.640     1.257
    72   1 H        0.803     0.309     0.695     1.309
    73   8 O        1.610    -0.703    27.779     7.114
    74   1 H        0.805     0.356     0.574     1.190
    75   1 H        0.805     0.373     0.537     1.151
    76   8 O        1.609    -0.700    27.723     7.106
    77   1 H        0.805     0.379     0.524     1.137
    78   1 H        0.804     0.308     0.699     1.313
    79   8 O        1.608    -0.662    26.714     6.976
    80   1 H        0.805     0.277     0.794     1.399
    81   1 H        0.803     0.360     0.565     1.181
    82   8 O        1.610    -0.702    27.759     7.111
    83   1 H        0.805     0.363     0.558     1.173
    84   1 H        0.805     0.357     0.571     1.187
    85   8 O        1.609    -0.682    27.231     7.043
    86   1 H        0.805     0.350     0.588     1.205
    87   1 H        0.804     0.335     0.625     1.242
    88   8 O        1.608    -0.690    27.444     7.070
    89   1 H        0.806     0.351     0.586     1.203
    90   1 H        0.803     0.364     0.556     1.172
    91   8 O        1.611    -0.698    27.655     7.098
    92   1 H        0.805     0.351     0.585     1.201
    93   1 H        0.805     0.364     0.557     1.172
    94   8 O        1.608    -0.702    27.756     7.111
    95   1 H        0.806     0.322     0.658     1.274
    96   1 H        0.802     0.349     0.591     1.208
    97   8 O        1.608    -0.691    27.463     7.073
    98   1 H        0.804     0.357     0.571     1.187
    99   1 H        0.805     0.306     0.704     1.318
   100   8 O        1.610    -0.730    28.508     7.206
   101   1 H        0.805     0.365     0.554     1.169
   102   1 H        0.805     0.365     0.555     1.170
   103   8 O        1.610    -0.734    28.638     7.223
   104   1 H        0.805     0.372     0.540     1.154
   105   1 H        0.805     0.363     0.560     1.175
   106   8 O        1.610    -0.728    28.478     7.202
   107   1 H        0.805     0.365     0.553     1.168
   108   1 H        0.805     0.363     0.558     1.174
   109   8 O        1.610    -0.736    28.681     7.228
   110   1 H        0.805     0.369     0.545     1.160
   111   1 H        0.805     0.367     0.551     1.166
   112   8 O        1.610    -0.734    28.639     7.223
   113   1 H        0.805     0.366     0.553     1.168
   114   1 H        0.805     0.369     0.547     1.161
   115   8 O        1.608    -0.709    27.946     7.135
   116   1 H        0.805     0.350     0.588     1.205
   117   1 H        0.802     0.349     0.591     1.208
   118   8 O        1.608    -0.706    27.865     7.124
   119   1 H        0.804     0.356     0.573     1.189
   120   1 H        0.804     0.355     0.578     1.194
   121   8 O        1.609    -0.683    27.258     7.046
   122   1 H        0.806     0.347     0.594     1.210
   123   1 H        0.803     0.363     0.560     1.175
   124   8 O        1.608    -0.704    27.805     7.117
   125   1 H        0.805     0.320     0.664     1.280
   126   1 H        0.803     0.347     0.595     1.212
   127   8 O        1.609    -0.716    28.140     7.160
   128   1 H        0.805     0.349     0.591     1.208
   129   1 H        0.804     0.345     0.599     1.216

Wiberg/Mayer (AO) data.
largest (>0.10) Wiberg bond orders for each atom

     #   Z sym  total        # sym  WBO       # sym  WBO       # sym  WBO
 ---------------------------------------------------------------------------
     1  26 Fe   1.298 --    19 O    0.188    10 O    0.187    13 O    0.184
                            52 O    0.155     7 O    0.144    16 O    0.131
                            34 O    0.130     2 O    0.115
     2   8 O    1.679 --     3 S    1.242     1 Fe   0.115
     3  16 S    4.506 --     2 O    1.242     6 O    1.095     5 O    1.088
                             4 O    1.069
     4   8 O    1.531 --     3 S    1.069
     5   8 O    1.546 --     3 S    1.088
     6   8 O    1.514 --     3 S    1.095
     7   8 O    1.974 --     9 H    0.855     8 H    0.798     1 Fe   0.144
     8   1 H    0.863 --     7 O    0.798
     9   1 H    0.899 --     7 O    0.855
    10   8 O    1.974 --    11 H    0.818    12 H    0.799     1 Fe   0.187
    11   1 H    0.867 --    10 O    0.818
    12   1 H    0.865 --    10 O    0.799
    13   8 O    1.986 --    15 H    0.860    14 H    0.782     1 Fe   0.184
    14   1 H    0.854 --    13 O    0.782
    15   1 H    0.877 --    13 O    0.860
    16   8 O    1.923 --    17 H    0.874    18 H    0.788     1 Fe   0.131
    17   1 H    0.914 --    16 O    0.874
    18   1 H    0.861 --    16 O    0.788
    19   8 O    1.967 --    20 H    0.840    21 H    0.809     1 Fe   0.188
    20   1 H    0.875 --    19 O    0.840
    21   1 H    0.861 --    19 O    0.809
    22   8 O    1.786 --    23 H    0.854    24 H    0.840
    23   1 H    0.920 --    22 O    0.854
    24   1 H    0.885 --    22 O    0.840
    25   8 O    1.798 --    27 H    0.861    26 H    0.848
    26   1 H    0.907 --    25 O    0.848
    27   1 H    0.895 --    25 O    0.861
    28   8 O    1.830 --    29 H    0.870    30 H    0.834
    29   1 H    0.924 --    28 O    0.870
    30   1 H    0.877 --    28 O    0.834
    31   8 O    1.823 --    33 H    0.874    32 H    0.847
    32   1 H    0.881 --    31 O    0.847
    33   1 H    0.925 --    31 O    0.874
    34   8 O    1.930 --    35 H    0.858    36 H    0.815     1 Fe   0.130
    35   1 H    0.894 --    34 O    0.858
    36   1 H    0.877 --    34 O    0.815
    37   8 O    1.751 --    38 H    0.871    39 H    0.866
    38   1 H    0.871 --    37 O    0.871
    39   1 H    0.892 --    37 O    0.866
    40   8 O    1.836 --    42 H    0.855    41 H    0.799
    41   1 H    0.872 --    40 O    0.799
    42   1 H    0.897 --    40 O    0.855
    43   8 O    1.812 --    44 H    0.867    45 H    0.814
    44   1 H    0.873 --    43 O    0.867
    45   1 H    0.875 --    43 O    0.814
    46   8 O    1.838 --    47 H    0.872    48 H    0.784
    47   1 H    0.902 --    46 O    0.872
    48   1 H    0.866 --    46 O    0.784
    49   8 O    1.842 --    51 H    0.883    50 H    0.783
    50   1 H    0.858 --    49 O    0.783
    51   1 H    0.895 --    49 O    0.883
    52   8 O    1.938 --    54 H    0.874    53 H    0.812     1 Fe   0.155
    53   1 H    0.867 --    52 O    0.812
    54   1 H    0.894 --    52 O    0.874
    55   8 O    1.873 --    57 H    0.851    56 H    0.837
    56   1 H    0.885 --    55 O    0.837
    57   1 H    0.885 --    55 O    0.851
    58   8 O    1.820 --    59 H    0.829    60 H    0.801
    59   1 H    0.882 --    58 O    0.829
    60   1 H    0.864 --    58 O    0.801
    61   8 O    1.863 --    62 H    0.835    63 H    0.825
    62   1 H    0.882 --    61 O    0.835
    63   1 H    0.869 --    61 O    0.825
    64   8 O    1.854 --    65 H    0.838    66 H    0.774
    65   1 H    0.879 --    64 O    0.838
    66   1 H    0.858 --    64 O    0.774
    67   8 O    1.781 --    68 H    0.862    69 H    0.861
    68   1 H    0.863 --    67 O    0.862
    69   1 H    0.863 --    67 O    0.861
    70   8 O    1.794 --    71 H    0.862    72 H    0.847
    71   1 H    0.892 --    70 O    0.862
    72   1 H    0.904 --    70 O    0.847
    73   8 O    1.782 --    74 H    0.871    75 H    0.859
    74   1 H    0.873 --    73 O    0.871
    75   1 H    0.861 --    73 O    0.859
    76   8 O    1.779 --    78 H    0.856    77 H    0.853
    77   1 H    0.856 --    76 O    0.853
    78   1 H    0.905 --    76 O    0.856
    79   8 O    1.834 --    80 H    0.880    81 H    0.816
    80   1 H    0.923 --    79 O    0.880
    81   1 H    0.870 --    79 O    0.816
    82   8 O    1.774 --    84 H    0.870    83 H    0.866
    83   1 H    0.868 --    82 O    0.866
    84   1 H    0.872 --    82 O    0.870
    85   8 O    1.796 --    86 H    0.874    87 H    0.853
    86   1 H    0.878 --    85 O    0.874
    87   1 H    0.888 --    85 O    0.853
    88   8 O    1.829 --    89 H    0.868    90 H    0.810
    89   1 H    0.877 --    88 O    0.868
    90   1 H    0.867 --    88 O    0.810
    91   8 O    1.773 --    92 H    0.874    93 H    0.865
    92   1 H    0.877 --    91 O    0.874
    93   1 H    0.868 --    91 O    0.865
    94   8 O    1.765 --    95 H    0.892    96 H    0.817
    95   1 H    0.896 --    94 O    0.892
    96   1 H    0.878 --    94 O    0.817
    97   8 O    1.775 --    99 H    0.878    98 H    0.845
    98   1 H    0.872 --    97 O    0.845
    99   1 H    0.906 --    97 O    0.878
   100   8 O    1.733 --   102 H    0.867   101 H    0.867
   101   1 H    0.867 --   100 O    0.867
   102   1 H    0.867 --   100 O    0.867
   103   8 O    1.730 --   105 H    0.868   104 H    0.862
   104   1 H    0.862 --   103 O    0.862
   105   1 H    0.869 --   103 O    0.868
   106   8 O    1.734 --   108 H    0.868   107 H    0.866
   107   1 H    0.866 --   106 O    0.866
   108   1 H    0.868 --   106 O    0.868
   109   8 O    1.729 --   111 H    0.865   110 H    0.863
   110   1 H    0.864 --   109 O    0.863
   111   1 H    0.866 --   109 O    0.865
   112   8 O    1.730 --   113 H    0.866   114 H    0.864
   113   1 H    0.866 --   112 O    0.866
   114   1 H    0.864 --   112 O    0.864
   115   8 O    1.786 --   116 H    0.875   117 H    0.821
   116   1 H    0.878 --   115 O    0.875
   117   1 H    0.878 --   115 O    0.821
   118   8 O    1.805 --   120 H    0.849   119 H    0.837
   119   1 H    0.873 --   118 O    0.837
   120   1 H    0.874 --   118 O    0.849
   121   8 O    1.832 --   122 H    0.869   123 H    0.819
   122   1 H    0.879 --   121 O    0.869
   123   1 H    0.868 --   121 O    0.819
   124   8 O    1.751 --   125 H    0.893   126 H    0.830
   125   1 H    0.898 --   124 O    0.893
   126   1 H    0.879 --   124 O    0.830
   127   8 O    1.747 --   128 H    0.878   129 H    0.843
   128   1 H    0.878 --   127 O    0.878
   129   1 H    0.881 --   127 O    0.843
 ---------------------------------------------------------------------------

molecular dipole:
                 x           y           z       tot (Debye)
 q only:       -1.067      -6.851      -2.284
   full:       -0.931      -3.499      -2.207      10.778

           -------------------------------------------------
          | TOTAL ENERGY             -231.752173869038 Eh   |
          | GRADIENT NORM               0.000046787310 Eh/α |
          | HOMO-LUMO GAP               6.913244342536 eV   |
           -------------------------------------------------

 * finished run on 2024/05/17 at 16:37:03.414
