 Gaussian 16, Revision C.02,
 Gaussian 16:  ES64L-G16RevC.02  7-Dec-2021

 ----------------------------------------------------------------------
 #p uB3LYP 6-31+G(2df,p) empiricaldispersion=gd3 opt=(cartesian,calcall
 ,maxcycles=500) freq scf=(maxcycles=500,xqc,maxconventional=500,NoSymm
 )
 ----------------------------------------------------------------------

 -----
 title
 -----
 Symbolic Z-matrix:
 Charge = -4 Multiplicity = 1

 SCF Done:  E(UB3LYP) =  -1820.42709187     A.U. after  336 cycles
 SCF Done:  E(UB3LYP) =  -1820.43421771     A.U. after   88 cycles
 SCF Done:  E(UB3LYP) =  -1820.44050297     A.U. after  156 cycles
 SCF Done:  E(UB3LYP) =  -1820.44333540     A.U. after  130 cycles
 SCF Done:  E(UB3LYP) =  -1820.44356423     A.U. after  159 cycles
 SCF Done:  E(UB3LYP) =  -1820.44356582     A.U. after   40 cycles
 Optimization completed.
    -- Stationary point found.
 Normal termination of Gaussian 16 at Mon Jul 22 22:55:23 2024.

 ----------------------------------------------------------------------
 #P Geom=AllCheck Guess=TCheck SCRF=Check GenChk UB3LYP/6-31+G(2df,p) F
 req
 ----------------------------------------------------------------------

 Structure from the checkpoint file:  "Fe_CN6_minus2_LS.chk"
 -----
 title
 -----
 Charge = -4 Multiplicity = 1

                         Standard orientation:
 ---------------------------------------------------------------------
 Center     Atomic      Atomic             Coordinates (Angstroms)
 Number     Number       Type             X           Y           Z
 ---------------------------------------------------------------------
      1         26           0        0.000002    0.000015   -0.000009
      2          6           0       -0.066054   -1.405888    1.408267
      3          6           0        1.998769   -0.095267   -0.001451
      4          6           0       -0.068100   -1.405476   -1.408611
      5          6           0        0.066084    1.405947   -1.408255
      6          6           0       -1.998755    0.095296    0.001419
      7          6           0        0.068059    1.405425    1.408649
      8          7           0       -0.105614   -2.247306    2.231577
      9          7           0        3.175054   -0.151283   -0.002310
     10          7           0       -0.108900   -2.246604   -2.232141
     11          7           0        0.105688    2.247325   -2.231588
     12          7           0       -3.175041    0.151302    0.002224
     13          7           0        0.108802    2.246480    2.232257
 ---------------------------------------------------------------------

 SCF Done:  E(UB3LYP) =  -1820.44356582     A.U. after    9 cycles

 The electronic state is 1-A.
 Alpha  occ. eigenvalues -- -255.61398 -29.57987 -25.44606 -25.44573 -25.43747
 Alpha  occ. eigenvalues --  -13.81102 -13.81101 -13.81101 -13.81098 -13.80647
 Alpha  occ. eigenvalues --  -13.80644  -9.69422  -9.69422  -9.69422  -9.69422
 Alpha  occ. eigenvalues --   -9.69021  -9.69021  -2.94737  -1.71974  -1.71956
 Alpha  occ. eigenvalues --   -1.70623  -0.37473  -0.37263  -0.37257  -0.37152
 Alpha  occ. eigenvalues --   -0.36850  -0.36818  -0.00088   0.07262   0.07284
 Alpha  occ. eigenvalues --    0.07669   0.07817   0.08255   0.14093   0.14987
 Alpha  occ. eigenvalues --    0.15079   0.15084   0.15518   0.15533   0.15647
 Alpha  occ. eigenvalues --    0.16132   0.16751   0.18142   0.18318   0.18325
 Alpha  occ. eigenvalues --    0.19194   0.19362   0.19362   0.20615   0.20669
 Alpha  occ. eigenvalues --    0.20797   0.26704   0.26715   0.28109
 Alpha virt. eigenvalues --    0.29646   0.40723   0.40855   0.40870   0.43365
 Alpha virt. eigenvalues --    0.43426   0.44970   0.49024   0.49030   0.49034
 Alpha virt. eigenvalues --    0.49890   0.50877   0.52951   0.52954   0.52968

  Beta  occ. eigenvalues -- -255.61398 -29.57987 -25.44606 -25.44573 -25.43747
  Beta  occ. eigenvalues --  -13.81102 -13.81101 -13.81101 -13.81098 -13.80647
  Beta  occ. eigenvalues --  -13.80644  -9.69422  -9.69422  -9.69422  -9.69422
  Beta  occ. eigenvalues --   -9.69021  -9.69021  -2.94737  -1.71974  -1.71956
  Beta  occ. eigenvalues --   -1.70623  -0.37473  -0.37263  -0.37257  -0.37152
  Beta  occ. eigenvalues --   -0.36850  -0.36818  -0.00088   0.07262   0.07284
  Beta  occ. eigenvalues --    0.07669   0.07817   0.08255   0.14093   0.14987
  Beta  occ. eigenvalues --    0.15079   0.15084   0.15518   0.15533   0.15647
  Beta  occ. eigenvalues --    0.16132   0.16751   0.18142   0.18318   0.18325
  Beta  occ. eigenvalues --    0.19194   0.19362   0.19362   0.20615   0.20669
  Beta  occ. eigenvalues --    0.20797   0.26704   0.26715   0.28109
  Beta virt. eigenvalues --    0.29646   0.40723   0.40855   0.40870   0.43365
  Beta virt. eigenvalues --    0.43426   0.44970   0.49024   0.49030   0.49034
  Beta virt. eigenvalues --    0.49890   0.50877   0.52951   0.52954   0.52968

 Mulliken charges and spin densities:
               1          2
     1  Fe   1.103353   0.000000
     2  C   -0.199546  -0.000000
     3  C   -0.194619  -0.000000
     4  C   -0.199470  -0.000000
     5  C   -0.199511  -0.000000
     6  C   -0.194634  -0.000000
     7  C   -0.199590   0.000000
     8  N   -0.652601   0.000000
     9  N   -0.652840   0.000000
    10  N   -0.652559   0.000000
    11  N   -0.652559   0.000000
    12  N   -0.652840   0.000000
    13  N   -0.652585   0.000000
 Sum of Mulliken charges =  -4.00000  -0.00000

 Dipole moment (field-independent basis, Debye):
    X=             -0.0000    Y=              0.0002    Z=              0.0000  Tot=              0.0002
 Quadrupole moment (field-independent basis, Debye-Ang):
   XX=           -202.3585   YY=           -199.5167   ZZ=           -201.3382
   XY=              0.1320   XZ=              0.0001   YZ=              0.0005

  Exact polarizability:     305.047      -0.444     295.268       0.028      -0.005     334.684
 Approx polarizability:     358.543       0.190     362.585       0.028      -0.008     396.354

                      1                      2                      3
                      A                      A                      A
 Frequencies --     86.4626                87.0092                91.1616
 Red. masses --     13.6760                13.6860                13.6906
 Frc consts  --      0.0602                 0.0610                 0.0670
 IR Inten    --      0.0156                 0.0140                 0.0000

                      4                      5                      6
                      A                      A                      A
 Frequencies --    119.5729               120.1748               127.2239
 Red. masses --     13.7638                13.7892                13.7963
 Frc consts  --      0.1159                 0.1173                 0.1316
 IR Inten    --      0.0000                 0.0000                 0.0000

                      7                      8                      9
                      A                      A                      A
 Frequencies --    129.8665               130.3464               132.7689
 Red. masses --     15.3760                15.4455                15.3302
 Frc consts  --      0.1528                 0.1546                 0.1592
 IR Inten    --      0.4511                 0.1282                 0.1988

                     10                     11                     12
                      A                      A                      A
 Frequencies --    287.6626               300.8499               303.5384
 Red. masses --     13.0419                13.0367                13.0329
 Frc consts  --      0.6359                 0.6952                 0.7075
 IR Inten    --      0.0000                 0.0000                 0.0000

                     13                     14                     15
                      A                      A                      A
 Frequencies --    325.2870               327.6502               332.3002
 Red. masses --     16.8628                16.7318                16.7631
 Frc consts  --      1.0513                 1.0583                 1.0906
 IR Inten    --      5.6540                 4.9602                19.5246

                     16                     17                     18
                      A                      A                      A
 Frequencies --    354.0158               354.3319               356.0762
 Red. masses --     12.4512                12.4524                12.4493
 Frc consts  --      0.9194                 0.9211                 0.9300
 IR Inten    --      0.0000                 0.0000                 0.0000

                     19                     20                     21
                      A                      A                      A
 Frequencies --    455.6355               457.9094               478.1264
 Red. masses --     12.4475                12.3331                12.2394
 Frc consts  --      1.5225                 1.5236                 1.6485
 IR Inten    --     12.9307                 1.0388                 0.0000

                     22                     23                     24
                      A                      A                      A
 Frequencies --    505.2096               527.7995               529.5678
 Red. masses --     12.1814                12.1562                15.4610
 Frc consts  --      1.8319                 1.9952                 2.5546
 IR Inten    --      0.0000                 0.0001                70.1058

                     25                     26                     27
                      A                      A                      A
 Frequencies --    534.1070               553.5935               590.7632
 Red. masses --     15.5840                15.7391                12.1617
 Frc consts  --      2.6193                 2.8419                 2.5007
 IR Inten    --     32.6919                76.3272                 0.0000

                     28                     29                     30
                      A                      A                      A
 Frequencies --   2111.9253              2112.1031              2112.4567
 Red. masses --     12.8083                12.8279                12.8281
 Frc consts  --     33.6588                33.7159                33.7278
 IR Inten    --      2.8015               258.2434               362.3662

                     31                     32                     33
                      A                      A                      A
 Frequencies --   2116.3338              2121.1535              2122.7828
 Red. masses --     12.8166                12.8259                12.8148
 Frc consts  --     33.8215                34.0002                34.0231
 IR Inten    --      0.0148               405.3085                 0.0006

 - Thermochemistry -
 -------------------
 Temperature   298.150 Kelvin.  Pressure   1.00000 Atm.
 Atom     1 has atomic number 26 and mass  55.93494

 Molecular mass:   211.95338 amu.
 Principal axes and moments of inertia in atomic units:
                           1         2         3
     Eigenvalues --  2688.040202690.098892705.30533
           X            1.00000  -0.00002  -0.00000
           Y            0.00002   1.00000  -0.00000
           Z            0.00000   0.00000   1.00000
 This molecule is an asymmetric top.
 Rotational symmetry number  1.
 Warning -- assumption of classical behavior for rotation
           may cause significant error
 Rotational temperatures (Kelvin)      0.03222     0.03220     0.03202
 Rotational constants (GHZ):           0.67140     0.67088     0.66711
 Zero-point vibrational energy     127377.0 (Joules/Mol)
                                   30.44383 (Kcal/Mol)
 Warning -- explicit consideration of  27 degrees of freedom as
           vibrations may cause significant error
 Vibrational temperatures:    124.40   125.19   131.16   172.04   172.90
          (Kelvin)            183.05   186.85   187.54   191.02   413.88
                              432.86   436.72   468.02   471.42   478.11
                              509.35   509.80   512.31   655.56   658.83
                              687.92   726.88   759.39   761.93   768.46
                              796.50   849.98  3038.59  3038.85  3039.35
                             3044.93  3051.87  3054.21

 Zero-point correction=                           0.048515 (Hartree/Particle)
 Thermal correction to Energy=                    0.063165
 Thermal correction to Enthalpy=                  0.064109
 Thermal correction to Gibbs Free Energy=         0.007281
 Sum of electronic and zero-point Energies=          -1820.395050
 Sum of electronic and thermal Energies=             -1820.380401
 Sum of electronic and thermal Enthalpies=           -1820.379456
 Sum of electronic and thermal Free Energies=        -1820.436285

                     E (Thermal)             CV                S
                      KCal/Mol        Cal/Mol-Kelvin    Cal/Mol-Kelvin
 Total                   39.637             48.986            119.605
 Electronic               0.000              0.000              0.000
 Translational            0.889              2.981             41.957
 Rotational               0.889              2.981             31.348
 Vibrational             37.859             43.024             46.299
 Vibration     1          0.601              1.959              3.739
 Vibration     2          0.601              1.958              3.726
 Vibration     3          0.602              1.955              3.635
 Vibration     4          0.609              1.933              3.107
 Vibration     5          0.609              1.932              3.098
 Vibration     6          0.611              1.926              2.988
 Vibration     7          0.612              1.923              2.948
 Vibration     8          0.612              1.923              2.941
 Vibration     9          0.613              1.921              2.906
 Vibration    10          0.685              1.697              1.488
 Vibration    11          0.693              1.672              1.412
 Vibration    12          0.695              1.667              1.397
 Vibration    13          0.709              1.625              1.283
 Vibration    14          0.711              1.620              1.272
 Vibration    15          0.714              1.611              1.249
 Vibration    16          0.730              1.567              1.148
 Vibration    17          0.730              1.566              1.147
 Vibration    18          0.732              1.563              1.139
 Vibration    19          0.814              1.348              0.779
 Vibration    20          0.816              1.343              0.772
 Vibration    21          0.835              1.299              0.715
 Vibration    22          0.860              1.238              0.645
 Vibration    23          0.883              1.188              0.592
 Vibration    24          0.885              1.185              0.588
 Vibration    25          0.889              1.175              0.578
 Vibration    26          0.909              1.132              0.537
 Vibration    27          0.948              1.051              0.466

 Optimization completed.
    -- Stationary point found.
 Normal termination of Gaussian 16 at Mon Jul 22 22:59:18 2024.
