 Gaussian 16, Revision C.02,
 Gaussian 16:  ES64L-G16RevC.02  7-Dec-2021

 ----------------------------------------------------------------------
 #p B3LYP 6-31+G(2df,p) empiricaldispersion=gd3 opt=(cartesian,calcall,
 maxcycles=500) freq scf=(maxcycles=500,xqc,maxconventional=50)
 ----------------------------------------------------------------------

 -----
 title
 -----
 Symbolic Z-matrix:
 Charge = -4 Multiplicity = 5

 SCF Done:  E(UB3LYP) =  -1820.37540200     A.U. after   30 cycles
 SCF Done:  E(UB3LYP) =  -1820.37781101     A.U. after   51 cycles
 SCF Done:  E(UB3LYP) =  -1820.37781101     a.u. after    1 cycles
 SCF Done:  E(UB3LYP) =  -1820.39594864     A.U. after   51 cycles
 SCF Done:  E(UB3LYP) =  -1820.39594864     a.u. after    1 cycles
 SCF Done:  E(UB3LYP) =  -1820.42310173     A.U. after   38 cycles
 SCF Done:  E(UB3LYP) =  -1820.44118359     A.U. after   39 cycles
 SCF Done:  E(UB3LYP) =  -1820.42954886     A.U. after   43 cycles
 SCF Done:  E(UB3LYP) =  -1820.43942515     A.U. after   30 cycles
 SCF Done:  E(UB3LYP) =  -1820.44626256     A.U. after   27 cycles
 SCF Done:  E(UB3LYP) =  -1820.44841663     A.U. after   32 cycles
 SCF Done:  E(UB3LYP) =  -1820.44860535     A.U. after   28 cycles
 SCF Done:  E(UB3LYP) =  -1820.44860028     A.U. after   25 cycles
 SCF Done:  E(UB3LYP) =  -1820.44858518     A.U. after   23 cycles
 SCF Done:  E(UB3LYP) =  -1820.44860764     A.U. after   24 cycles
 SCF Done:  E(UB3LYP) =  -1820.44859026     A.U. after   23 cycles
 SCF Done:  E(UB3LYP) =  -1820.44861066     A.U. after   24 cycles
 Optimization completed.
    -- Stationary point found.
 Normal termination of Gaussian 16 at Mon Jul 22 17:58:03 2024.

 ----------------------------------------------------------------------
 #P Geom=AllCheck Guess=TCheck SCRF=Check GenChk UB3LYP/6-31+G(2df,p) F
 req
 ----------------------------------------------------------------------

 Structure from the checkpoint file:  "Fe_CN6_minus2_HS.chk"
 -----
 title
 -----
 Charge = -4 Multiplicity = 5

                         Standard orientation:
 ---------------------------------------------------------------------
 Center     Atomic      Atomic             Coordinates (Angstroms)
 Number     Number       Type             X           Y           Z
 ---------------------------------------------------------------------
      1         26           0        0.000149   -0.000152   -0.000081
      2          6           0        0.000809    1.407994    1.459203
      3          6           0        0.000352    1.459161   -1.408192
      4          6           0        2.385531   -0.000894   -0.000348
      5          6           0       -0.000796   -1.408271   -1.459382
      6          6           0       -0.000416   -1.459442    1.408052
      7          6           0       -2.385654    0.000984    0.000410
      8          7           0        0.001203    2.220098    2.300886
      9          7           0        0.000493    2.300903   -2.220242
     10          7           0        3.559999   -0.000327    0.000055
     11          7           0       -0.001297   -2.220342   -2.301101
     12          7           0       -0.000744   -2.301133    2.220155
     13          7           0       -3.560060    0.001767    0.000768
 ---------------------------------------------------------------------

 SCF Done:  E(UB3LYP) =  -1820.44861066     A.U. after    5 cycles

 The electronic state is 5-A.
 Alpha  occ. eigenvalues -- -255.73271 -29.72798 -25.59981 -25.57890 -25.57890
 Alpha  occ. eigenvalues --  -13.87260 -13.87260 -13.87258 -13.87255 -13.85659
 Alpha  occ. eigenvalues --  -13.85654  -9.75186  -9.75186  -9.75185  -9.75185
 Alpha  occ. eigenvalues --   -9.73010  -9.73006  -3.15091  -1.95675  -1.90360
 Alpha  occ. eigenvalues --   -1.90360  -0.43595  -0.43447  -0.43446  -0.43355
 Alpha  occ. eigenvalues --   -0.41685  -0.41674  -0.05896  -0.00127   0.00972
 Alpha  occ. eigenvalues --    0.01467   0.01467   0.03283   0.04738   0.04738
 Alpha  occ. eigenvalues --    0.06455   0.06982   0.08170   0.09064   0.10141
 Alpha  occ. eigenvalues --    0.10142   0.10297   0.12141   0.12348   0.12348
 Alpha  occ. eigenvalues --    0.13127   0.13127   0.13213   0.13414   0.13865
 Alpha  occ. eigenvalues --    0.13865   0.14292   0.14292   0.14982   0.21282
 Alpha  occ. eigenvalues --    0.26656
 Alpha virt. eigenvalues --    0.35136   0.39244   0.39244   0.39815   0.42035
 Alpha virt. eigenvalues --    0.42305   0.43260   0.46377   0.46468   0.46631
 Alpha virt. eigenvalues --    0.46631   0.47271   0.47271   0.47856   0.48915

  Beta  occ. eigenvalues -- -255.73187 -29.66947 -25.53955 -25.53955 -25.53334
  Beta  occ. eigenvalues --  -13.87204 -13.87204 -13.87202 -13.87199 -13.85616
  Beta  occ. eigenvalues --  -13.85612  -9.75303  -9.75302  -9.75302  -9.75302
  Beta  occ. eigenvalues --   -9.72733  -9.72729  -3.00651  -1.77929  -1.77929
  Beta  occ. eigenvalues --   -1.74905  -0.43536  -0.43387  -0.43387  -0.43293
  Beta  occ. eigenvalues --   -0.41420  -0.41410  -0.05239   0.01259   0.01259
  Beta  occ. eigenvalues --    0.01567   0.03962   0.04290   0.08601   0.08686
  Beta  occ. eigenvalues --    0.09994   0.10073   0.10073   0.10578   0.11067
  Beta  occ. eigenvalues --    0.11067   0.12396   0.13128   0.13128   0.13184
  Beta  occ. eigenvalues --    0.13410   0.14087   0.14087   0.14284   0.14284
  Beta  occ. eigenvalues --    0.16040   0.18341
  Beta virt. eigenvalues --    0.29531   0.32753   0.32753   0.37398   0.38310
  Beta virt. eigenvalues --    0.38310   0.38790   0.40380   0.41019   0.42438
  Beta virt. eigenvalues --    0.42721   0.45957   0.46366   0.46366   0.46988

 Mulliken charges and spin densities:
               1          2
     1  Fe   1.068258   3.967379
     2  C   -0.251026  -0.215711
     3  C   -0.251058  -0.215766
     4  C   -0.125826  -0.107682
     5  C   -0.251095  -0.215875
     6  C   -0.251071  -0.215820
     7  C   -0.125934  -0.107587
     8  N   -0.634540   0.201491
     9  N   -0.634557   0.201520
    10  N   -0.637042   0.152520
    11  N   -0.634584   0.201572
    12  N   -0.634571   0.201545
    13  N   -0.636955   0.152414
 Sum of Mulliken charges =  -4.00000   4.00000

 Dipole moment (field-independent basis, Debye):
    X=             -0.0004    Y=              0.0002    Z=              0.0001  Tot=              0.0005
 Quadrupole moment (field-independent basis, Debye-Ang):
   XX=           -253.1187   YY=           -237.4939   ZZ=           -237.4938
   XY=             -0.0003   XZ=             -0.0011   YZ=              0.0000

  Exact polarizability:     420.950       0.016     510.738       0.007       0.000     510.740
 Approx polarizability:     463.376       0.029     553.090       0.012      -0.000     553.092

                      1                      2                      3
                      A                      A                      A
 Frequencies --     73.5739                73.5755                80.1025
 Red. masses --     13.8932                13.8933                13.6018
 Frc consts  --      0.0443                 0.0443                 0.0514
 IR Inten    --      0.0345                 0.0346                 0.0000

                      4                      5                      6
                      A                      A                      A
 Frequencies --    100.6806               100.6851               114.5408
 Red. masses --     13.7836                13.7836                13.7812
 Frc consts  --      0.0823                 0.0823                 0.1065
 IR Inten    --      0.0000                 0.0000                 0.0000

                      7                      8                      9
                      A                      A                      A
 Frequencies --    115.0382               115.0467               119.6894
 Red. masses --     15.4035                15.4033                15.7319
 Frc consts  --      0.1201                 0.1201                 0.1328
 IR Inten    --      6.0302                 6.0309                 7.7554

                     10                     11                     12
                      A                      A                      A
 Frequencies --    142.1151               169.1872               262.3078
 Red. masses --     20.7050                13.0207                12.4502
 Frc consts  --      0.2464                 0.2196                 0.5047
 IR Inten    --      3.2635                 0.0000                 0.0008

                     13                     14                     15
                      A                      A                      A
 Frequencies --    262.3137               271.6414               294.0244
 Red. masses --     12.4502                13.0397                12.3716
 Frc consts  --      0.5047                 0.5669                 0.6301
 IR Inten    --      0.0006                 0.0000                19.6432

                     16                     17                     18
                      A                      A                      A
 Frequencies --    294.0246               318.0596               326.0694
 Red. masses --     12.3716                13.0438                12.4568
 Frc consts  --      0.6301                 0.7774                 0.7803
 IR Inten    --     19.6428                 0.0000                 0.0000

                     19                     20                     21
                      A                      A                      A
 Frequencies --    363.1560               363.1615               378.0045
 Red. masses --     15.6452                15.6458                12.3113
 Frc consts  --      1.2157                 1.2158                 1.0364
 IR Inten    --      2.9487                 2.9468                 0.0001

                     22                     23                     24
                      A                      A                      A
 Frequencies --    387.0020               426.3655               426.3751
 Red. masses --     13.1166                12.1936                12.1937
 Frc consts  --      1.1574                 1.3060                 1.3061
 IR Inten    --     81.4444                 0.0003                 0.0003

                     25                     26                     27
                      A                      A                      A
 Frequencies --    480.4652               482.5840               482.5906
 Red. masses --     12.1679                16.3689                16.3684
 Frc consts  --      1.6550                 2.2460                 2.2460
 IR Inten    --      0.0001                75.0954                75.1012

                     28                     29                     30
                      A                      A                      A
 Frequencies --   2157.5692              2158.8278              2195.6730
 Red. masses --     12.8313                12.8300                12.8111
 Frc consts  --     35.1925                35.2300                36.3891
 IR Inten    --     54.7858                 1.7054                 0.0024

                     31                     32                     33
                      A                      A                      A
 Frequencies --   2196.5444              2196.5674              2202.2270
 Red. masses --     12.8131                12.8131                12.8067
 Frc consts  --     36.4238                36.4245                36.5943
 IR Inten    --     50.2468                50.2435                 0.0001

 - Thermochemistry -
 -------------------
 Temperature   298.150 Kelvin.  Pressure   1.00000 Atm.
 Atom     1 has atomic number 26 and mass  55.93494

 Molecular mass:   211.95338 amu.
 Principal axes and moments of inertia in atomic units:
                           1         2         3
     Eigenvalues --  2749.938023130.241203130.26704
           X            1.00000  -0.00000  -0.00000
           Y            0.00000   1.00000  -0.00000
           Z            0.00000   0.00000   1.00000
 This molecule is an asymmetric top.
 Rotational symmetry number  1.
 Warning -- assumption of classical behavior for rotation
           may cause significant error
 Rotational temperatures (Kelvin)      0.03150     0.02767     0.02767
 Rotational constants (GHZ):           0.65628     0.57655     0.57655
 Zero-point vibrational energy     120402.9 (Joules/Mol)
                                   28.77698 (Kcal/Mol)
 Warning -- explicit consideration of  27 degrees of freedom as
           vibrations may cause significant error
 Vibrational temperatures:    105.86   105.86   115.25   144.86   144.86
          (Kelvin)            164.80   165.51   165.53   172.21   204.47
                              243.42   377.40   377.41   390.83   423.04
                              423.04   457.62   469.14   522.50   522.51
                              543.86   556.81   613.44   613.46   691.28
                              694.33   694.34  3104.26  3106.07  3159.08
                             3160.34  3160.37  3168.51

 Zero-point correction=                           0.045859 (Hartree/Particle)
 Thermal correction to Energy=                    0.062259
 Thermal correction to Enthalpy=                  0.063203
 Thermal correction to Gibbs Free Energy=         0.000439
 Sum of electronic and zero-point Energies=          -1820.402752
 Sum of electronic and thermal Energies=             -1820.386352
 Sum of electronic and thermal Enthalpies=           -1820.385407
 Sum of electronic and thermal Free Energies=        -1820.448171

                     E (Thermal)             CV                S
                      KCal/Mol        Cal/Mol-Kelvin    Cal/Mol-Kelvin
 Total                   39.068             51.974            132.098
 Electronic               0.000              0.000              3.198
 Translational            0.889              2.981             41.957
 Rotational               0.889              2.981             31.666
 Vibrational             37.291             46.012             55.276
 Vibration     1          0.599              1.966              4.055
 Vibration     2          0.599              1.966              4.055
 Vibration     3          0.600              1.963              3.888
 Vibration     4          0.604              1.949              3.441
 Vibration     5          0.604              1.949              3.441
 Vibration     6          0.607              1.937              3.190
 Vibration     7          0.608              1.937              3.182
 Vibration     8          0.608              1.937              3.182
 Vibration     9          0.609              1.933              3.105
 Vibration    10          0.616              1.911              2.775
 Vibration    11          0.625              1.880              2.444
 Vibration    12          0.670              1.742              1.646
 Vibration    13          0.670              1.742              1.646
 Vibration    14          0.675              1.726              1.586
 Vibration    15          0.689              1.685              1.451
 Vibration    16          0.689              1.685              1.451
 Vibration    17          0.704              1.639              1.320
 Vibration    18          0.710              1.623              1.279
 Vibration    19          0.737              1.548              1.109
 Vibration    20          0.737              1.548              1.109
 Vibration    21          0.748              1.517              1.047
 Vibration    22          0.755              1.498              1.012
 Vibration    23          0.788              1.413              0.871
 Vibration    24          0.788              1.413              0.871
 Vibration    25          0.837              1.293              0.709
 Vibration    26          0.839              1.289              0.703
 Vibration    27          0.839              1.289              0.703

 Normal termination of Gaussian 16 at Mon Jul 22 18:01:49 2024.
