 Gaussian 16, Revision C.02,
 Gaussian 16:  ES64L-G16RevC.02  7-Dec-2021

 ----------------------------------------------------------------------
 #p B3LYP 6-31+G(2df,p) empiricaldispersion=gd3 opt=(cartesian,calcall,
 maxcycles=500) freq scf=(maxcycles=500,xqc,maxconventional=50)
 ----------------------------------------------------------------------

 -----
 title
 -----
 Symbolic Z-matrix:
 Charge = -3 Multiplicity = 2

 SCF Done:  E(UB3LYP) =  -1820.71736274     A.U. after   20 cycles
 SCF Done:  E(UB3LYP) =  -1820.72301957     A.U. after   26 cycles
 SCF Done:  E(UB3LYP) =  -1820.72874011     A.U. after   30 cycles
 SCF Done:  E(UB3LYP) =  -1820.73017322     A.U. after   27 cycles
 SCF Done:  E(UB3LYP) =  -1820.73023449     A.U. after   42 cycles
 Optimization completed.
    -- Stationary point found.
 Normal termination of Gaussian 16 at Mon Jul 22 17:11:05 2024.

 ----------------------------------------------------------------------
 #P Geom=AllCheck Guess=TCheck SCRF=Check GenChk UB3LYP/6-31+G(2df,p) F
 req
 ----------------------------------------------------------------------

 Structure from the checkpoint file:  "Fe_CN6_minus3_LS.chk"
 -----
 title
 -----
 Charge = -3 Multiplicity = 2

                         Standard orientation:
 ---------------------------------------------------------------------
 Center     Atomic      Atomic             Coordinates (Angstroms)
 Number     Number       Type             X           Y           Z
 ---------------------------------------------------------------------
      1         26           0       -0.000045   -0.000178    0.000062
      2          6           0       -1.423056    1.391937   -0.021689
      3          6           0       -1.392029   -1.423362   -0.016584
      4          6           0        0.027060   -0.003477   -1.985992
      5          6           0        1.423260   -1.391963    0.021708
      6          6           0        1.391677    1.423334    0.016637
      7          6           0       -0.027151    0.003097    1.986096
      8          7           0       -2.259827    2.211011   -0.034599
      9          7           0       -2.210817   -2.260417   -0.026387
     10          7           0        0.043009   -0.005376   -3.158106
     11          7           0        2.261103   -2.209978    0.034164
     12          7           0        2.210103    2.260757    0.026331
     13          7           0       -0.043197    0.005036    3.158213
 ---------------------------------------------------------------------

 SCF Done:  E(UB3LYP) =  -1820.73023449     A.U. after    1 cycles

 The electronic state is 2-A.
 Alpha  occ. eigenvalues -- -255.76797 -29.74659 -25.61623 -25.61623 -25.59060
 Alpha  occ. eigenvalues --  -13.93339 -13.93339 -13.93338 -13.93334 -13.92086
 Alpha  occ. eigenvalues --  -13.92084  -9.81521  -9.81520  -9.81519  -9.81519
 Alpha  occ. eigenvalues --   -9.80494  -9.80493  -3.13081  -1.91748  -1.91748
 Alpha  occ. eigenvalues --   -1.86284  -0.49831  -0.49641  -0.49640  -0.49531
 Alpha  occ. eigenvalues --   -0.48435  -0.48435  -0.13087  -0.05364  -0.05042
 Alpha  occ. eigenvalues --   -0.05041  -0.04190  -0.03972   0.00135   0.02334
 Alpha  occ. eigenvalues --    0.02352   0.02352   0.02787   0.03432   0.03432
 Alpha  occ. eigenvalues --    0.03919   0.04088   0.06035   0.06400   0.06400
 Alpha  occ. eigenvalues --    0.06912   0.07516   0.07626   0.07627   0.08573
 Alpha  occ. eigenvalues --    0.08573   0.08924   0.11248   0.11248
 Alpha virt. eigenvalues --    0.24755   0.32226   0.32227   0.32406   0.32893
 Alpha virt. eigenvalues --    0.34156   0.35382   0.36103   0.36508   0.39558
 Alpha virt. eigenvalues --    0.39558   0.39573   0.40014   0.41049   0.41049

  Beta  occ. eigenvalues -- -255.76770 -29.72593 -25.59417 -25.59417 -25.58348
  Beta  occ. eigenvalues --  -13.93272 -13.93272 -13.93271 -13.93267 -13.92101
  Beta  occ. eigenvalues --  -13.92099  -9.81603  -9.81602  -9.81602  -9.81601
  Beta  occ. eigenvalues --   -9.80547  -9.80547  -3.07864  -1.84559  -1.84559
  Beta  occ. eigenvalues --   -1.84219  -0.49738  -0.49543  -0.49541  -0.49432
  Beta  occ. eigenvalues --   -0.48490  -0.48486  -0.13072  -0.05096  -0.05095
  Beta  occ. eigenvalues --   -0.05081  -0.04164  -0.03804   0.02439   0.02759
  Beta  occ. eigenvalues --    0.02759   0.03216   0.03298   0.03504   0.03504
  Beta  occ. eigenvalues --    0.03857   0.04648   0.06030   0.06556   0.06556
  Beta  occ. eigenvalues --    0.07252   0.07623   0.07624   0.08559   0.08559
  Beta  occ. eigenvalues --    0.08767   0.13299   0.13299
  Beta virt. eigenvalues --    0.24756   0.25810   0.32229   0.32229   0.32403
  Beta virt. eigenvalues --    0.33818   0.34596   0.35955   0.36127   0.38661
  Beta virt. eigenvalues --    0.39542   0.39542   0.39554   0.41306   0.41307

 Mulliken charges and spin densities:
               1          2
     1  Fe   1.910226   1.152975
     2  C   -0.329700  -0.051331
     3  C   -0.329813  -0.051323
     4  C   -0.279956  -0.037795
     5  C   -0.329819  -0.051337
     6  C   -0.329657  -0.051334
     7  C   -0.280036  -0.037782
     8  N   -0.496279   0.036393
     9  N   -0.496222   0.036409
    10  N   -0.523107  -0.008842
    11  N   -0.496266   0.036423
    12  N   -0.496277   0.036389
    13  N   -0.523092  -0.008844
 Sum of Mulliken charges =  -3.00000   1.00000

 Dipole moment (field-independent basis, Debye):
    X=             -0.0008    Y=             -0.0020    Z=              0.0006  Tot=              0.0022
 Quadrupole moment (field-independent basis, Debye-Ang):
   XX=           -150.9167   YY=           -150.9097   ZZ=           -155.0069
   XY=              0.0004   XZ=              0.0582   YZ=             -0.0071

  Exact polarizability:     161.477      -0.002     161.471       0.042      -0.005     158.242
 Approx polarizability:     231.323      -0.005     231.308       0.126      -0.015     221.695

                      1                      2                      3
                      A                      A                      A
 Frequencies --     79.6204                79.6744                86.7807
 Red. masses --     13.6955                13.6947                13.6929
 Frc consts  --      0.0512                 0.0512                 0.0608
 IR Inten    --      0.1611                 0.1583                 0.0000

                      4                      5                      6
                      A                      A                      A
 Frequencies --    108.4246               119.1237               119.1750
 Red. masses --     13.7321                13.8170                13.8169
 Frc consts  --      0.0951                 0.1155                 0.1156
 IR Inten    --      0.0000                 0.0000                 0.0000

                      7                      8                      9
                      A                      A                      A
 Frequencies --    122.9733               123.0059               127.0729
 Red. masses --     15.4259                15.4263                15.4559
 Frc consts  --      0.1374                 0.1375                 0.1470
 IR Inten    --      6.7502                 6.7464                 5.1270

                     10                     11                     12
                      A                      A                      A
 Frequencies --    324.3266               325.7090               329.6527
 Red. masses --     13.0451                12.4517                13.0483
 Frc consts  --      0.8085                 0.7783                 0.8354
 IR Inten    --      0.0000                 0.0001                 0.0004

                     13                     14                     15
                      A                      A                      A
 Frequencies --    330.6696               337.9959               338.0839
 Red. masses --     13.0459                12.4512                12.4512
 Frc consts  --      0.8405                 0.8381                 0.8385
 IR Inten    --      0.0000                 0.0000                 0.0000

                     16                     17                     18
                      A                      A                      A
 Frequencies --    347.7811               347.8523               353.0807
 Red. masses --     13.8773                13.8834                15.6606
 Frc consts  --      0.9889                 0.9898                 1.1503
 IR Inten    --     70.2536                70.3663                54.1987

                     19                     20                     21
                      A                      A                      A
 Frequencies --    402.4572               402.5128               430.3230
 Red. masses --     13.7250                13.7197                12.2064
 Frc consts  --      1.3098                 1.3097                 1.3318
 IR Inten    --     20.3285                20.2208                 0.0000

                     22                     23                     24
                      A                      A                      A
 Frequencies --    444.5698               513.2594               513.2618
 Red. masses --     12.2376                16.6702                16.6700
 Frc consts  --      1.4250                 2.5874                 2.5874
 IR Inten    --      0.0000                 1.0452                 1.0438

                     25                     26                     27
                      A                      A                      A
 Frequencies --    535.6984               538.5011               538.5396
 Red. masses --     16.8169                12.1401                12.1407
 Frc consts  --      2.8434                 2.0742                 2.0746
 IR Inten    --      7.1471                 0.0000                 0.0013

                     28                     29                     30
                      A                      A                      A
 Frequencies --   2170.8054              2176.7642              2180.2754
 Red. masses --     12.8171                12.8042                12.8151
 Frc consts  --     35.5862                35.7457                35.8917
 IR Inten    --    231.9972                 0.0067                97.0948

                     31                     32                     33
                      A                      A                      A
 Frequencies --   2180.5038              2184.2459              2191.6801
 Red. masses --     12.8151                12.8028                12.8069
 Frc consts  --     35.8993                35.9881                36.2449
 IR Inten    --     97.1089                 0.0197                 0.0019

 - Thermochemistry -
 -------------------
 Temperature   298.150 Kelvin.  Pressure   1.00000 Atm.
 Atom     1 has atomic number 26 and mass  55.93494

 Molecular mass:   211.95338 amu.
 Principal axes and moments of inertia in atomic units:
                           1         2         3
     Eigenvalues --  2675.285232675.390282679.03437
           X            1.00000   0.00001   0.00000
           Y           -0.00001   1.00000  -0.00000
           Z           -0.00000   0.00000   1.00000
 This molecule is an asymmetric top.
 Rotational symmetry number  1.
 Warning -- assumption of classical behavior for rotation
           may cause significant error
 Rotational temperatures (Kelvin)      0.03238     0.03237     0.03233
 Rotational constants (GHZ):           0.67460     0.67457     0.67365
 Zero-point vibrational energy     128026.7 (Joules/Mol)
                                   30.59913 (Kcal/Mol)
 Warning -- explicit consideration of  27 degrees of freedom as
           vibrations may cause significant error
 Vibrational temperatures:    114.56   114.63   124.86   156.00   171.39
          (Kelvin)            171.47   176.93   176.98   182.83   466.63
                              468.62   474.30   475.76   486.30   486.43
                              500.38   500.48   508.00   579.05   579.13
                              619.14   639.64   738.47   738.47   770.75
                              774.78   774.84  3123.30  3131.88  3136.93
                             3137.26  3142.64  3153.34

 Zero-point correction=                           0.048763 (Hartree/Particle)
 Thermal correction to Energy=                    0.063656
 Thermal correction to Enthalpy=                  0.064601
 Thermal correction to Gibbs Free Energy=         0.006448
 Sum of electronic and zero-point Energies=          -1820.681472
 Sum of electronic and thermal Energies=             -1820.666578
 Sum of electronic and thermal Enthalpies=           -1820.665634
 Sum of electronic and thermal Free Energies=        -1820.723787

                     E (Thermal)             CV                S
                      KCal/Mol        Cal/Mol-Kelvin    Cal/Mol-Kelvin
 Total                   39.945             49.534            122.393
 Electronic               0.000              0.000              1.377
 Translational            0.889              2.981             41.957
 Rotational               0.889              2.981             31.328
 Vibrational             38.168             43.572             47.731
 Vibration     1          0.600              1.963              3.900
 Vibration     2          0.600              1.963              3.899
 Vibration     3          0.601              1.958              3.731
 Vibration     4          0.606              1.942              3.297
 Vibration     5          0.609              1.933              3.115
 Vibration     6          0.609              1.933              3.114
 Vibration     7          0.610              1.930              3.053
 Vibration     8          0.610              1.930              3.053
 Vibration     9          0.611              1.926              2.990
 Vibration    10          0.709              1.627              1.288
 Vibration    11          0.710              1.624              1.281
 Vibration    12          0.712              1.616              1.262
 Vibration    13          0.713              1.614              1.257
 Vibration    14          0.718              1.600              1.222
 Vibration    15          0.718              1.599              1.221
 Vibration    16          0.725              1.580              1.176
 Vibration    17          0.725              1.580              1.176
 Vibration    18          0.729              1.569              1.152
 Vibration    19          0.768              1.465              0.954
 Vibration    20          0.768              1.465              0.953
 Vibration    21          0.792              1.404              0.858
 Vibration    22          0.804              1.373              0.812
 Vibration    23          0.868              1.221              0.626
 Vibration    24          0.868              1.221              0.626
 Vibration    25          0.891              1.171              0.575
 Vibration    26          0.894              1.165              0.569
 Vibration    27          0.894              1.165              0.568

 Optimization completed.
    -- Stationary point found.
 Normal termination of Gaussian 16 at Mon Jul 22 17:14:54 2024.
