 Gaussian 16, Revision C.02,
 Gaussian 16:  ES64L-G16RevC.02  7-Dec-2021

 ----------------------------------------------------------------------
 #p B3LYP 6-31+G(2df,p) empiricaldispersion=gd3 opt=(cartesian,calcall,
 maxcycles=500) freq scf=(maxcycles=500,xqc,maxconventional=50)
 ----------------------------------------------------------------------

 -----
 title
 -----
 Symbolic Z-matrix:
 Charge = -3 Multiplicity = 6

 SCF Done:  E(UB3LYP) =  -1820.55255690     A.U. after   22 cycles
 SCF Done:  E(UB3LYP) =  -1820.57864311     A.U. after   17 cycles
 SCF Done:  E(UB3LYP) =  -1820.61532412     A.U. after   20 cycles
 SCF Done:  E(UB3LYP) =  -1820.63870256     A.U. after   18 cycles
 SCF Done:  E(UB3LYP) =  -1820.65996878     A.U. after   19 cycles
 SCF Done:  E(UB3LYP) =  -1820.67530240     A.U. after   17 cycles
 SCF Done:  E(UB3LYP) =  -1820.68046099     A.U. after   18 cycles
 SCF Done:  E(UB3LYP) =  -1820.68267176     A.U. after   15 cycles
 SCF Done:  E(UB3LYP) =  -1820.68313393     A.U. after   15 cycles
 SCF Done:  E(UB3LYP) =  -1820.68320015     A.U. after   12 cycles
 SCF Done:  E(UB3LYP) =  -1820.68320084     A.U. after   10 cycles
 Optimization completed.
    -- Stationary point found.
 Normal termination of Gaussian 16 at Mon Jul 22 17:32:08 2024.

 ----------------------------------------------------------------------
 #P Geom=AllCheck Guess=TCheck SCRF=Check GenChk UB3LYP/6-31+G(2df,p) F
 req
 ----------------------------------------------------------------------

 Structure from the checkpoint file:  "Fe_CN6_minus3_HS.chk"
 -----
 title
 -----
 Charge = -3 Multiplicity = 6

                         Standard orientation:
 ---------------------------------------------------------------------
 Center     Atomic      Atomic             Coordinates (Angstroms)
 Number     Number       Type             X           Y           Z
 ---------------------------------------------------------------------
      1         26           0       -0.000008   -0.000003   -0.000007
      2          6           0        1.774205   -0.519092   -1.251126
      3          6           0        1.350914    0.828112    1.572189
      4          6           0       -0.098521    2.006831   -0.972367
      5          6           0       -1.774242    0.519082    1.251085
      6          6           0       -1.350953   -0.828121   -1.572183
      7          6           0        0.098569   -2.006820    0.972379
      8          7           0        2.705370   -0.791500   -1.907674
      9          7           0        2.059889    1.262719    2.397284
     10          7           0       -0.150196    3.060043   -1.482656
     11          7           0       -2.705380    0.791507    1.907667
     12          7           0       -2.059944   -1.262730   -2.397263
     13          7           0        0.150315   -3.060020    1.482690
 ---------------------------------------------------------------------

 SCF Done:  E(UB3LYP) =  -1820.68320084     A.U. after    1 cycles

 The electronic state is 6-A.
 Alpha  occ. eigenvalues -- -255.85959 -29.86987 -25.72501 -25.72501 -25.72501
 Alpha  occ. eigenvalues --  -13.94793 -13.94792 -13.94792 -13.94792 -13.94786
 Alpha  occ. eigenvalues --  -13.94786  -9.82092  -9.82091  -9.82091  -9.82091
 Alpha  occ. eigenvalues --   -9.82091  -9.82091  -3.32104  -2.09261  -2.09261
 Alpha  occ. eigenvalues --   -2.09261  -0.51028  -0.50884  -0.50884  -0.50884
 Alpha  occ. eigenvalues --   -0.50844  -0.50843  -0.12444  -0.12444  -0.12363
 Alpha  occ. eigenvalues --   -0.09139  -0.09139  -0.09139  -0.06146  -0.06146
 Alpha  occ. eigenvalues --   -0.06146  -0.02264  -0.02264   0.00668   0.02437
 Alpha  occ. eigenvalues --    0.02437   0.02437   0.03783   0.03783   0.03783
 Alpha  occ. eigenvalues --    0.04602   0.04602   0.04602   0.05264   0.05264
 Alpha  occ. eigenvalues --    0.05264   0.05776   0.05776   0.05776   0.11465
 Alpha  occ. eigenvalues --    0.11465
 Alpha virt. eigenvalues --    0.24621   0.31974   0.31975   0.31975   0.34077
 Alpha virt. eigenvalues --    0.34077   0.35406   0.37934   0.37934   0.37934
 Alpha virt. eigenvalues --    0.39260   0.39260   0.39260   0.40022   0.40022

  Beta  occ. eigenvalues -- -255.85843 -29.78113 -25.65155 -25.65155 -25.65155
  Beta  occ. eigenvalues --  -13.94728 -13.94727 -13.94727 -13.94727 -13.94721
  Beta  occ. eigenvalues --  -13.94721  -9.81818  -9.81818  -9.81818  -9.81818
  Beta  occ. eigenvalues --   -9.81817  -9.81817  -3.10524  -1.86499  -1.86499
  Beta  occ. eigenvalues --   -1.86499  -0.50701  -0.50560  -0.50560  -0.50560
  Beta  occ. eigenvalues --   -0.50518  -0.50518  -0.10938  -0.05281  -0.05281
  Beta  occ. eigenvalues --   -0.05281  -0.04906  -0.04906   0.01161   0.03004
  Beta  occ. eigenvalues --    0.03004   0.03004   0.03328   0.03328   0.03328
  Beta  occ. eigenvalues --    0.03408   0.03408   0.04904   0.04904   0.04904
  Beta  occ. eigenvalues --    0.05549   0.05549   0.05549   0.06584   0.06584
  Beta  occ. eigenvalues --    0.06584
  Beta virt. eigenvalues --    0.22540   0.22540   0.22540   0.24625   0.27854
  Beta virt. eigenvalues --    0.27855   0.31983   0.31983   0.31983   0.34196
  Beta virt. eigenvalues --    0.34196   0.35486   0.39337   0.39337   0.39337

 Mulliken charges and spin densities:
               1          2
     1  Fe   2.446786   4.238383
     2  C   -0.460525   0.121084
     3  C   -0.460513   0.121085
     4  C   -0.460652   0.121085
     5  C   -0.460528   0.121084
     6  C   -0.460524   0.121085
     7  C   -0.460652   0.121085
     8  N   -0.447233   0.005853
     9  N   -0.447231   0.005853
    10  N   -0.447232   0.005849
    11  N   -0.447234   0.005853
    12  N   -0.447228   0.005853
    13  N   -0.447233   0.005849
 Sum of Mulliken charges =  -3.00000   5.00000

 Dipole moment (field-independent basis, Debye):
    X=             -0.0001    Y=             -0.0000    Z=             -0.0001  Tot=              0.0001
 Quadrupole moment (field-independent basis, Debye-Ang):
   XX=           -161.4088   YY=           -161.4077   ZZ=           -161.4063
   XY=             -0.0000   XZ=              0.0001   YZ=             -0.0001

  Exact polarizability:     166.433      -0.003     166.432      -0.003       0.001     166.433
 Approx polarizability:     227.683      -0.000     227.681      -0.001      -0.000     227.679

                      1                      2                      3
                      A                      A                      A
 Frequencies --     60.1483                60.1843                60.1972
 Red. masses --     13.5888                13.5887                13.5889
 Frc consts  --      0.0290                 0.0290                 0.0290
 IR Inten    --      0.0000                 0.0000                 0.0000

                      4                      5                      6
                      A                      A                      A
 Frequencies --     90.1266                90.1501                90.1666
 Red. masses --     13.7647                13.7647                13.7646
 Frc consts  --      0.0659                 0.0659                 0.0659
 IR Inten    --      0.0000                 0.0000                 0.0000

                      7                      8                      9
                      A                      A                      A
 Frequencies --    101.6862               101.6951               101.7128
 Red. masses --     15.8399                15.8404                15.8400
 Frc consts  --      0.0965                 0.0965                 0.0966
 IR Inten    --     14.6374                14.6415                14.6353

                     10                     11                     12
                      A                      A                      A
 Frequencies --    206.9413               206.9561               241.2171
 Red. masses --     13.0279                13.0279                12.4808
 Frc consts  --      0.3287                 0.3288                 0.4279
 IR Inten    --      0.0000                 0.0000                 0.0000

                     13                     14                     15
                      A                      A                      A
 Frequencies --    241.2834               241.3412               277.0809
 Red. masses --     12.4808                12.4808                17.5611
 Frc consts  --      0.4281                 0.4283                 0.7944
 IR Inten    --      0.0000                 0.0000               175.2247

                     16                     17                     18
                      A                      A                      A
 Frequencies --    277.1041               277.1136               281.7931
 Red. masses --     17.5563                17.5506                12.3219
 Frc consts  --      0.7943                 0.7941                 0.5765
 IR Inten    --    175.1653               175.0693                 0.0025

                     19                     20                     21
                      A                      A                      A
 Frequencies --    281.8588               281.8749               283.7840
 Red. masses --     12.3220                12.3220                13.0345
 Frc consts  --      0.5768                 0.5768                 0.6185
 IR Inten    --      0.0038                 0.0009                 0.0000

                     22                     23                     24
                      A                      A                      A
 Frequencies --    315.6594               315.6997               315.7190
 Red. masses --     14.7100                14.7189                14.7166
 Frc consts  --      0.8636                 0.8643                 0.8643
 IR Inten    --     25.0524                25.1920                25.1619

                     25                     26                     27
                      A                      A                      A
 Frequencies --    350.8866               350.9212               350.9399
 Red. masses --     12.1807                12.1808                12.1809
 Frc consts  --      0.8836                 0.8838                 0.8839
 IR Inten    --      0.0000                 0.0000                 0.0000

                     28                     29                     30
                      A                      A                      A
 Frequencies --   2181.5636              2181.5997              2183.2991
 Red. masses --     12.8225                12.8225                12.8225
 Frc consts  --     35.9550                35.9562                36.0122
 IR Inten    --      0.0001                 0.0000                14.6234

                     31                     32                     33
                      A                      A                      A
 Frequencies --   2183.3285              2183.3591              2186.8283
 Red. masses --     12.8225                12.8225                12.8162
 Frc consts  --     36.0132                36.0142                36.1108
 IR Inten    --     14.6230                14.6218                 0.0000

 - Thermochemistry -
 -------------------
 Temperature   298.150 Kelvin.  Pressure   1.00000 Atm.
 Atom     1 has atomic number 26 and mass  55.93494

 Molecular mass:   211.95338 amu.
 Principal axes and moments of inertia in atomic units:
                           1         2         3
     Eigenvalues --  3171.257863171.274083171.30674
           X            1.00000  -0.00001  -0.00000
           Y            0.00001   1.00000   0.00000
           Z            0.00000  -0.00000   1.00000
 This molecule is an asymmetric top.
 Rotational symmetry number  1.
 Warning -- assumption of classical behavior for rotation
           may cause significant error
 Rotational temperatures (Kelvin)      0.02731     0.02731     0.02731
 Rotational constants (GHZ):           0.56909     0.56909     0.56908
 Zero-point vibrational energy     113371.4 (Joules/Mol)
                                   27.09642 (Kcal/Mol)
 Warning -- explicit consideration of  27 degrees of freedom as
           vibrations may cause significant error
 Vibrational temperatures:     86.54    86.59    86.61   129.67   129.71
          (Kelvin)            129.73   146.30   146.32   146.34   297.74
                              297.76   347.06   347.15   347.24   398.66
                              398.69   398.70   405.44   405.53   405.56
                              408.30   454.16   454.22   454.25   504.85
                              504.90   504.92  3138.78  3138.84  3141.28
                             3141.32  3141.37  3146.36

 Zero-point correction=                           0.043181 (Hartree/Particle)
 Thermal correction to Energy=                    0.060911
 Thermal correction to Enthalpy=                  0.061855
 Thermal correction to Gibbs Free Energy=        -0.004512
 Sum of electronic and zero-point Energies=          -1820.640020
 Sum of electronic and thermal Energies=             -1820.622290
 Sum of electronic and thermal Enthalpies=           -1820.621346
 Sum of electronic and thermal Free Energies=        -1820.687713

                     E (Thermal)             CV                S
                      KCal/Mol        Cal/Mol-Kelvin    Cal/Mol-Kelvin
 Total                   38.222             54.244            139.681
 Electronic               0.000              0.000              3.561
 Translational            0.889              2.981             41.957
 Rotational               0.889              2.981             31.834
 Vibrational             36.445             48.282             62.330
 Vibration     1          0.597              1.973              4.452
 Vibration     2          0.597              1.973              4.451
 Vibration     3          0.597              1.973              4.451
 Vibration     4          0.602              1.956              3.657
 Vibration     5          0.602              1.956              3.657
 Vibration     6          0.602              1.956              3.656
 Vibration     7          0.604              1.948              3.422
 Vibration     8          0.604              1.948              3.422
 Vibration     9          0.604              1.948              3.421
 Vibration    10          0.641              1.830              2.070
 Vibration    11          0.641              1.830              2.070
 Vibration    12          0.658              1.777              1.794
 Vibration    13          0.658              1.777              1.793
 Vibration    14          0.658              1.777              1.793
 Vibration    15          0.678              1.716              1.552
 Vibration    16          0.678              1.716              1.551
 Vibration    17          0.678              1.716              1.551
 Vibration    18          0.681              1.707              1.523
 Vibration    19          0.681              1.707              1.522
 Vibration    20          0.681              1.707              1.522
 Vibration    21          0.682              1.704              1.511
 Vibration    22          0.703              1.644              1.332
 Vibration    23          0.703              1.644              1.332
 Vibration    24          0.703              1.644              1.332
 Vibration    25          0.728              1.573              1.162
 Vibration    26          0.728              1.573              1.162
 Vibration    27          0.728              1.573              1.162

 Optimization completed.
    -- Stationary point found.
 Normal termination of Gaussian 16 at Mon Jul 22 17:35:34 2024.
