 Gaussian 16, Revision C.02,

 ----------------------------------------------------------------------
 #p B3LYP empiricaldispersion=gd3 6-31+G(2df,p) opt=(cartesian,calcall,
 maxcycles=500) freq scf=(maxcycles=500,xqc,maxconventional=50)
 ----------------------------------------------------------------------

 -----
 Title
 -----
 Symbolic Z-matrix:
 Charge =  3 Multiplicity = 3

 SCF Done:  E(UB3LYP) =  -1401.39519467     A.U. after   21 cycles
 SCF Done:  E(UB3LYP) =  -1401.42544076     A.U. after   21 cycles
 SCF Done:  E(UB3LYP) =  -1401.47646486     A.U. after   22 cycles
 SCF Done:  E(UB3LYP) =  -1401.53127594     A.U. after   23 cycles
 SCF Done:  E(UB3LYP) =  -1401.54227538     A.U. after   23 cycles
 SCF Done:  E(UB3LYP) =  -1401.56795702     A.U. after   22 cycles
 SCF Done:  E(UB3LYP) =  -1401.59642121     A.U. after   24 cycles
 SCF Done:  E(UB3LYP) =  -1401.61231540     A.U. after   23 cycles
 SCF Done:  E(UB3LYP) =  -1401.61839987     A.U. after   20 cycles
 SCF Done:  E(UB3LYP) =  -1401.60831772     A.U. after   23 cycles
 SCF Done:  E(UB3LYP) =  -1401.63715814     A.U. after   25 cycles
 SCF Done:  E(UB3LYP) =  -1401.64149173     A.U. after   24 cycles
 SCF Done:  E(UB3LYP) =  -1401.64156951     A.U. after   20 cycles
 SCF Done:  E(UB3LYP) =  -1401.64225994     A.U. after   23 cycles
 SCF Done:  E(UB3LYP) =  -1401.64268288     A.U. after   23 cycles
 SCF Done:  E(UB3LYP) =  -1401.64272266     A.U. after   17 cycles
 SCF Done:  E(UB3LYP) =  -1401.64272561     A.U. after   14 cycles
 SCF Done:  E(UB3LYP) =  -1401.64273104     A.U. after   13 cycles
 Optimization completed.
    -- Stationary point found.
 Normal termination of Gaussian 16 at Thu May 23 18:36:12 2024.

 ----------------------------------------------------------------------
 #P Geom=AllCheck Guess=TCheck SCRF=Check GenChk UB3LYP/6-31+G(2df,p) F
 req
 ----------------------------------------------------------------------

 Structure from the checkpoint file:  "V_3_B3LYP.chk"
 -----
 Title
 -----
 Charge =  3 Multiplicity = 3

 SCF Done:  E(UB3LYP) =  -1401.64273104     A.U. after    1 cycles

  Exact polarizability:      59.929       0.000      59.925      -0.000      -0.004      57.958
 Approx polarizability:      77.678       0.001      77.673      -0.003      -0.010      73.739

                      1                      2                      3
                      A                      A                      A
 Frequencies --    118.6518               119.6922               149.4013
 Red. masses --      4.7993                 4.7959                 4.4297
 Frc consts  --      0.0398                 0.0405                 0.0583
 IR Inten    --      1.6903                 1.6697                 2.7851

                      4                      5                      6
                      A                      A                      A
 Frequencies --    166.9916               171.9051               172.5832
 Red. masses --      5.1986                 4.5451                 4.5498
 Frc consts  --      0.0854                 0.0791                 0.0798
 IR Inten    --      0.0000                 0.0000                 0.0000

                      7                      8                      9
                      A                      A                      A
 Frequencies --    184.7914               185.0232               185.0856
 Red. masses --      3.5170                 3.0333                 3.4306
 Frc consts  --      0.0708                 0.0612                 0.0692
 IR Inten    --      0.5847                 0.6581                 0.5944

                     10                     11                     12
                      A                      A                      A
 Frequencies --    244.4044               244.7680               263.0462
 Red. masses --      1.3206                 1.3207                 1.1971
 Frc consts  --      0.0465                 0.0466                 0.0488
 IR Inten    --      0.0000                 0.0000                 9.1500

                     13                     14                     15
                      A                      A                      A
 Frequencies --    263.4745               312.9617               370.4500
 Red. masses --      1.1958                 1.0202                 2.5514
 Frc consts  --      0.0489                 0.0589                 0.2063
 IR Inten    --      9.2930                 0.0000                 0.0000

                     16                     17                     18
                      A                      A                      A
 Frequencies --    370.5185               426.1372               435.6954
 Red. masses --      2.5540                 1.8653                 5.9740
 Frc consts  --      0.2066                 0.1996                 0.6682
 IR Inten    --      0.0000                 2.8280                 0.0000

                     19                     20                     21
                      A                      A                      A
 Frequencies --    450.9395               451.1357               453.1201
 Red. masses --      4.1579                 4.1583                 1.4437
 Frc consts  --      0.4982                 0.4986                 0.1746
 IR Inten    --      1.3837                 1.4087                18.8651

                     22                     23                     24
                      A                      A                      A
 Frequencies --    491.8340               491.8971               520.6018
 Red. masses --      1.1418                 1.1418                 1.1874
 Frc consts  --      0.1627                 0.1628                 0.1896
 IR Inten    --      0.0000                 0.0000               372.7221

                     25                     26                     27
                      A                      A                      A
 Frequencies --    520.9120               529.1207               536.8897
 Red. masses --      1.1870                 1.1237                 1.2887
 Frc consts  --      0.1898                 0.1854                 0.2189
 IR Inten    --    373.0936                 0.0001               614.7902

                     28                     29                     30
                      A                      A                      A
 Frequencies --    634.8122               672.3551               672.6016
 Red. masses --      1.1452                 1.1552                 1.1552
 Frc consts  --      0.2719                 0.3077                 0.3079
 IR Inten    --      0.0000                 0.0027                 0.0333

                     31                     32                     33
                      A                      A                      A
 Frequencies --    672.9675               700.8257               700.9173
 Red. masses --      1.2474                 1.2939                 1.2939
 Frc consts  --      0.3328                 0.3744                 0.3745
 IR Inten    --    210.8712               263.0433               263.1905

                     34                     35                     36
                      A                      A                      A
 Frequencies --   1660.0124              1660.2115              1662.0934
 Red. masses --      1.0922                 1.0921                 1.0909
 Frc consts  --      1.7732                 1.7735                 1.7756
 IR Inten    --    239.2283               239.2214                 0.0011

                     37                     38                     39
                      A                      A                      A
 Frequencies --   1662.2878              1663.0596              1676.2054
 Red. masses --      1.0908                 1.0917                 1.0813
 Frc consts  --      1.7759                 1.7790                 1.7900
 IR Inten    --      0.0001               254.7622                 0.0000

                     40                     41                     42
                      A                      A                      A
 Frequencies --   3633.7242              3633.7794              3640.3192
 Red. masses --      1.0431                 1.0431                 1.0439
 Frc consts  --      8.1147                 8.1150                 8.1507
 IR Inten    --      0.0000                 0.0000               649.9173

                     43                     44                     45
                      A                      A                      A
 Frequencies --   3640.3720              3641.5803              3664.1910
 Red. masses --      1.0439                 1.0438                 1.0459
 Frc consts  --      8.1509                 8.1557                 8.2733
 IR Inten    --    649.7479               693.6036                 0.0000

                     46                     47                     48
                      A                      A                      A
 Frequencies --   3709.6773              3710.6944              3712.0304
 Red. masses --      1.0849                 1.0851                 1.0850
 Frc consts  --      8.7964                 8.8031                 8.8085
 IR Inten    --      0.0004               351.0272                 0.0035

                     49                     50                     51
                      A                      A                      A
 Frequencies --   3712.0701              3712.7702              3712.8058
 Red. masses --      1.0850                 1.0851                 1.0851
 Frc consts  --      8.8087                 8.8127                 8.8129
 IR Inten    --      0.0043               698.2576               697.4054

 - Thermochemistry -
 -------------------
 Temperature   298.150 Kelvin.  Pressure   1.00000 Atm.
 Atom     1 has atomic number 23 and mass  50.94396

 Molecular mass:   159.00735 amu.
 Principal axes and moments of inertia in atomic units:
                           1         2         3
     Eigenvalues --  1165.656191165.735751186.79701
           X            0.99938  -0.03520  -0.00004
           Y            0.03520   0.99938  -0.00019
           Z            0.00004   0.00019   1.00000
 This molecule is an asymmetric top.
 Rotational symmetry number  1.
 Warning -- assumption of classical behavior for rotation
           may cause significant error
 Rotational temperatures (Kelvin)      0.07430     0.07430     0.07298
 Rotational constants (GHZ):           1.54826     1.54816     1.52068
 Zero-point vibrational energy     400715.5 (Joules/Mol)
                                   95.77330 (Kcal/Mol)
 Warning -- explicit consideration of  27 degrees of freedom as
           vibrations may cause significant error
 Vibrational temperatures:    170.71   172.21   214.96   240.26   247.33
          (Kelvin)            248.31   265.87   266.21   266.30   351.64
                              352.17   378.46   379.08   450.28   532.99
                              533.09   613.12   626.87   648.80   649.08
                              651.94   707.64   707.73   749.03   749.48
                              761.29   772.46   913.35   967.37   967.72
                              968.25  1008.33  1008.46  2388.39  2388.67
                             2391.38  2391.66  2392.77  2411.69  5228.12
                             5228.20  5237.61  5237.68  5239.42  5271.95
                             5337.40  5338.86  5340.78  5340.84  5341.85
                             5341.90

 Zero-point correction=                           0.152624 (Hartree/Particle)
 Thermal correction to Energy=                    0.167467
 Thermal correction to Enthalpy=                  0.168411
 Thermal correction to Gibbs Free Energy=         0.113590
 Sum of electronic and zero-point Energies=          -1401.490107
 Sum of electronic and thermal Energies=             -1401.475264
 Sum of electronic and thermal Enthalpies=           -1401.474320
 Sum of electronic and thermal Free Energies=        -1401.529141

                     E (Thermal)             CV                S
                      KCal/Mol        Cal/Mol-Kelvin    Cal/Mol-Kelvin
 Total                  105.087             54.375            115.382
 Electronic               0.000              0.000              2.183
 Translational            0.889              2.981             41.100
 Rotational               0.889              2.981             28.868
 Vibrational            103.310             48.413             43.230
 Vibration     1          0.609              1.934              3.122
 Vibration     2          0.609              1.933              3.105
 Vibration     3          0.618              1.903              2.680
 Vibration     4          0.624              1.883              2.469
 Vibration     5          0.626              1.877              2.415
 Vibration     6          0.626              1.876              2.407
 Vibration     7          0.631              1.861              2.279
 Vibration     8          0.631              1.860              2.277
 Vibration     9          0.631              1.860              2.276
 Vibration    10          0.660              1.772              1.771
 Vibration    11          0.660              1.771              1.768
 Vibration    12          0.670              1.741              1.641
 Vibration    13          0.670              1.740              1.639
 Vibration    14          0.701              1.649              1.347
 Vibration    15          0.742              1.533              1.078
 Vibration    16          0.743              1.533              1.078
 Vibration    17          0.788              1.413              0.871
 Vibration    18          0.796              1.392              0.840
 Vibration    19          0.810              1.359              0.793
 Vibration    20          0.810              1.358              0.792
 Vibration    21          0.812              1.354              0.786
 Vibration    22          0.848              1.268              0.679
 Vibration    23          0.848              1.268              0.679
 Vibration    24          0.876              1.204              0.609
 Vibration    25          0.876              1.204              0.608
 Vibration    26          0.884              1.186              0.589
 Vibration    27          0.892              1.168              0.572

 Optimization completed.
    -- Stationary point found.
 Normal termination of Gaussian 16 at Thu May 23 18:38:07 2024.
 Gaussian 16:  ES64L-G16RevC.02  7-Dec-2021

 ----------------------------------------------------------------------
 #p B3LYP empiricaldispersion=gd3 scf=(maxcycles=500,xqc,maxconventiona
 l=50) scrf=(cpcm,solvent=water) geom=allcheck guess=read chkbasis
 ----------------------------------------------------------------------

 Structure from the checkpoint file:  "V_3_B3LYP.chk_solvated"
 -----
 Title
 -----
 Charge =  3 Multiplicity = 3

                         Standard orientation:
 ---------------------------------------------------------------------
 Center     Atomic      Atomic             Coordinates (Angstroms)
 Number     Number       Type             X           Y           Z
 ---------------------------------------------------------------------
      1         23           0        0.000004   -0.000008    0.000004
      2          8           0        1.225686    1.145476   -1.170835
      3          1           0        2.202041    1.148103   -1.164204
      4          8           0       -0.381812    1.637745    1.165171
      5          1           0       -1.063084    1.708506    1.861102
      6          8           0       -1.606782    0.484717   -1.169953
      7          1           0       -2.006897   -0.071768   -1.865436
      8          8           0       -1.225771   -1.145586    1.170655
      9          1           0       -0.945532   -1.768922    1.868068
     10          8           0        0.381874   -1.637808   -1.165055
     11          1           0        1.063201   -1.708620   -1.860926
     12          8           0        1.606805   -0.484527    1.170010
     13          1           0        2.006728    0.072040    1.865537
     14          1           0        2.097726   -1.328502    1.165318
     15          1           0        0.103982    2.484654    1.157076
     16          1           0        0.945367    1.768554   -1.868447
     17          1           0       -0.103947   -2.484701   -1.156961
     18          1           0       -2.097540    1.328787   -1.165193
     19          1           0       -2.202127   -1.148078    1.164037
 ---------------------------------------------------------------------

 SCF Done:  E(UB3LYP) =  -1402.28102359     A.U. after   16 cycles

 The electronic state is 3-A.
 Alpha  occ. eigenvalues -- -197.05464 -22.45682 -19.26927 -19.26927 -19.26926
 Alpha  occ. eigenvalues --  -19.26926 -19.26920 -19.26920 -18.96314 -18.95572
 Alpha  occ. eigenvalues --  -18.95570  -2.82670  -1.85552  -1.85368  -1.85368
 Alpha  occ. eigenvalues --   -1.13164  -1.12183  -1.12178  -1.12167  -1.12162
 Alpha  occ. eigenvalues --   -1.12146  -0.64255  -0.64248  -0.63767  -0.63761
 Alpha  occ. eigenvalues --   -0.63545  -0.63340  -0.58888  -0.56541  -0.56539
 Alpha  occ. eigenvalues --   -0.53791  -0.53788  -0.53777  -0.45379  -0.44604
 Alpha  occ. eigenvalues --   -0.44596  -0.43465  -0.43178  -0.43173  -0.35921
 Alpha  occ. eigenvalues --   -0.35920
 Alpha virt. eigenvalues --   -0.21749  -0.14463  -0.14460  -0.06276  -0.02327
 Alpha virt. eigenvalues --   -0.02324  -0.02212   0.02727   0.03485   0.03489
 Alpha virt. eigenvalues --    0.06477   0.06483   0.07045   0.07048   0.07484

  Beta  occ. eigenvalues -- -197.05438 -22.42977 -19.26920 -19.26919 -19.26918
  Beta  occ. eigenvalues --  -19.26918 -19.26912 -19.26912 -18.94549 -18.93032
  Beta  occ. eigenvalues --  -18.93028  -2.74384  -1.78952  -1.75565  -1.75556
  Beta  occ. eigenvalues --   -1.13103  -1.12118  -1.12113  -1.12105  -1.12101
  Beta  occ. eigenvalues --   -1.12084  -0.64042  -0.64036  -0.63708  -0.63702
  Beta  occ. eigenvalues --   -0.63494  -0.63283  -0.58687  -0.56190  -0.56186
  Beta  occ. eigenvalues --   -0.53810  -0.53778  -0.53774  -0.44977  -0.43300
  Beta  occ. eigenvalues --   -0.43229  -0.43222  -0.42982  -0.42978
  Beta virt. eigenvalues --   -0.18040  -0.14832  -0.14832  -0.11251  -0.11250
  Beta virt. eigenvalues --   -0.06180  -0.02289  -0.02285  -0.02181   0.02767
  Beta virt. eigenvalues --    0.03660   0.03664   0.06597   0.06603   0.07190

 Mulliken charges and spin densities:
               1          2
     1  V    1.866104   2.002906
     2  O   -0.696545  -0.003192
     3  H    0.441864   0.001796
     4  O   -0.696588  -0.003120
     5  H    0.443693   0.000880
     6  O   -0.696677  -0.003164
     7  H    0.443645   0.000882
     8  O   -0.696547  -0.003198
     9  H    0.443728   0.000882
    10  O   -0.696559  -0.003120
    11  H    0.443689   0.000880
    12  O   -0.696666  -0.003162
    13  H    0.443641   0.000881
    14  H    0.441887   0.001796
    15  H    0.441933   0.001790
    16  H    0.443727   0.000882
    17  H    0.441927   0.001790
    18  H    0.441884   0.001796
    19  H    0.441860   0.001796
 Sum of Mulliken charges =   3.00000   2.00000

 Dipole moment (field-independent basis, Debye):
    X=             -0.0001    Y=             -0.0001    Z=             -0.0000  Tot=              0.0001
 Quadrupole moment (field-independent basis, Debye-Ang):
   XX=             -6.4076   YY=             -6.4095   ZZ=            -10.0799
   XY=              0.0012   XZ=             -0.0039   YZ=             -0.0078

 Normal termination of Gaussian 16 at Thu May 23 18:38:37 2024.
