 Gaussian 16, Revision C.02,

 ----------------------------------------------------------------------
 #p B3LYP empiricaldispersion=gd3 6-31+G(2df,p) opt=(cartesian,calcall,
 maxcycles=500) freq scf=(maxcycles=500,xqc,maxconventional=50)
 ----------------------------------------------------------------------

 -----
 Title
 -----
 Symbolic Z-matrix:
 Charge =  2 Multiplicity = 6

 SCF Done:  E(UB3LYP) =  -1608.85166299     A.U. after   19 cycles
 SCF Done:  E(UB3LYP) =  -1608.89511458     A.U. after   15 cycles
 SCF Done:  E(UB3LYP) =  -1608.96584632     A.U. after   14 cycles
 SCF Done:  E(UB3LYP) =  -1609.03547116     A.U. after   14 cycles
 SCF Done:  E(UB3LYP) =  -1609.06641397     A.U. after   11 cycles
 SCF Done:  E(UB3LYP) =  -1609.10479885     A.U. after   12 cycles
 SCF Done:  E(UB3LYP) =  -1609.14023412     A.U. after   12 cycles
 SCF Done:  E(UB3LYP) =  -1609.15492566     A.U. after   13 cycles
 SCF Done:  E(UB3LYP) =  -1609.16563921     A.U. after   10 cycles
 SCF Done:  E(UB3LYP) =  -1609.16533252     A.U. after   11 cycles
 SCF Done:  E(UB3LYP) =  -1609.18636561     A.U. after    8 cycles
 SCF Done:  E(UB3LYP) =  -1609.18636724     A.U. after    5 cycles
 SCF Done:  E(UB3LYP) =  -1609.18636101     A.U. after    8 cycles
 SCF Done:  E(UB3LYP) =  -1609.18637403     A.U. after    8 cycles
 SCF Done:  E(UB3LYP) =  -1609.18637402     A.U. after    7 cycles
 SCF Done:  E(UB3LYP) =  -1609.18637155     A.U. after    7 cycles
 SCF Done:  E(UB3LYP) =  -1609.18637074     A.U. after    7 cycles
 SCF Done:  E(UB3LYP) =  -1609.18636971     A.U. after    6 cycles
 Optimization completed.
    -- Stationary point found.
 Normal termination of Gaussian 16 at Thu May 23 14:40:36 2024.

 ----------------------------------------------------------------------
 #P Geom=AllCheck Guess=TCheck SCRF=Check GenChk UB3LYP/6-31+G(2df,p) F
 req
 ----------------------------------------------------------------------

 Structure from the checkpoint file:  "Mn_2_B3LYP.chk"
 -----
 Title
 -----
 Charge =  2 Multiplicity = 6

 SCF Done:  E(UB3LYP) =  -1609.18636971     A.U. after    1 cycles

  Exact polarizability:      56.879      -0.002      56.882       0.002      -0.002      56.880
 Approx polarizability:      69.002      -0.006      69.005      -0.001       0.000      69.010

                      1                      2                      3
                      A                      A                      A
 Frequencies --     69.2935                69.6366                70.6722
 Red. masses --      4.6828                 4.6941                 4.7030
 Frc consts  --      0.0132                 0.0134                 0.0138
 IR Inten    --      3.1630                 3.1794                 3.1596

                      4                      5                      6
                      A                      A                      A
 Frequencies --     88.3909                88.9808                89.5348
 Red. masses --      4.8700                 4.8992                 4.8873
 Frc consts  --      0.0224                 0.0229                 0.0231
 IR Inten    --      0.0004                 0.0010                 0.0008

                      7                      8                      9
                      A                      A                      A
 Frequencies --    103.6664               104.1211               104.5947
 Red. masses --      5.5745                 5.5502                 5.5333
 Frc consts  --      0.0353                 0.0355                 0.0357
 IR Inten    --      0.0761                 0.0729                 0.0671

                     10                     11                     12
                      A                      A                      A
 Frequencies --    214.2489               217.8763               247.1234
 Red. masses --      1.0078                 1.0079                 5.8777
 Frc consts  --      0.0273                 0.0282                 0.2115
 IR Inten    --      0.0015                 0.0039                 0.0000

                     13                     14                     15
                      A                      A                      A
 Frequencies --    247.1540               273.4170               276.8345
 Red. masses --      5.8773                 1.0295                 1.0311
 Frc consts  --      0.2115                 0.0453                 0.0466
 IR Inten    --      0.0000                 0.0116                 0.0120

                     16                     17                     18
                      A                      A                      A
 Frequencies --    277.3420               319.1428               319.5720
 Red. masses --      1.0304                 4.4563                 4.5786
 Frc consts  --      0.0467                 0.2674                 0.2755
 IR Inten    --      0.0446                13.5028                11.6798

                     19                     20                     21
                      A                      A                      A
 Frequencies --    319.6918               327.4855               370.5488
 Red. masses --      4.5695                 6.0648                 1.1037
 Frc consts  --      0.2752                 0.3832                 0.0893
 IR Inten    --     11.8718                 0.0003                 0.1330

                     22                     23                     24
                      A                      A                      A
 Frequencies --    371.7592               372.6385               386.3827
 Red. masses --      1.1061                 1.1067                 1.2426
 Frc consts  --      0.0901                 0.0905                 0.1093
 IR Inten    --      1.0603                 3.0849               387.3798

                     25                     26                     27
                      A                      A                      A
 Frequencies --    388.1847               388.3526               400.6579
 Red. masses --      1.2335                 1.2312                 1.0082
 Frc consts  --      0.1095                 0.1094                 0.0954
 IR Inten    --    385.7255               382.5166                 0.8274

                     28                     29                     30
                      A                      A                      A
 Frequencies --    524.1073               525.4383               525.6239
 Red. masses --      1.1595                 1.1593                 1.1592
 Frc consts  --      0.1877                 0.1886                 0.1887
 IR Inten    --      0.0093                 2.0884                 2.4250

                     31                     32                     33
                      A                      A                      A
 Frequencies --    535.6685               537.2048               537.4350
 Red. masses --      1.2094                 1.2070                 1.2067
 Frc consts  --      0.2045                 0.2052                 0.2054
 IR Inten    --    285.4215               279.5344               280.6313

                     34                     35                     36
                      A                      A                      A
 Frequencies --   1647.6712              1647.8159              1647.9384
 Red. masses --      1.0868                 1.0868                 1.0869
 Frc consts  --      1.7383                 1.7387                 1.7390
 IR Inten    --    224.2669               217.9754               212.4779

                     37                     38                     39
                      A                      A                      A
 Frequencies --   1648.3192              1648.5276              1655.0508
 Red. masses --      1.0882                 1.0881                 1.0811
 Frc consts  --      1.7419                 1.7423                 1.7447
 IR Inten    --      6.8222                12.1479                 0.0591

                     40                     41                     42
                      A                      A                      A
 Frequencies --   3755.3672              3756.1497              3757.5834
 Red. masses --      1.0440                 1.0441                 1.0440
 Frc consts  --      8.6747                 8.6790                 8.6852
 IR Inten    --     82.3074               145.4555               110.6846

                     43                     44                     45
                      A                      A                      A
 Frequencies --   3757.9281              3758.5597              3762.7878
 Red. masses --      1.0440                 1.0441                 1.0448
 Frc consts  --      8.6866                 8.6904                 8.7158
 IR Inten    --     84.7081               212.5811                 3.8953

                     46                     47                     48
                      A                      A                      A
 Frequencies --   3844.5020              3844.5455              3846.5464
 Red. masses --      1.0839                 1.0839                 1.0839
 Frc consts  --      9.4390                 9.4393                 9.4492
 IR Inten    --    153.8530               146.6584               227.9352

                     49                     50                     51
                      A                      A                      A
 Frequencies --   3846.9273              3847.1149              3847.5701
 Red. masses --      1.0839                 1.0839                 1.0840
 Frc consts  --      9.4510                 9.4515                 9.4544
 IR Inten    --    220.7339                 8.8510               365.6418

 - Thermochemistry -
 -------------------
 Temperature   298.150 Kelvin.  Pressure   1.00000 Atm.
 Atom     1 has atomic number 25 and mass  54.93805

 Molecular mass:   163.00143 amu.
 Principal axes and moments of inertia in atomic units:
                           1         2         3
     Eigenvalues --  1336.544231336.686291336.95925
           X            0.99685  -0.07921   0.00372
           Y            0.07930   0.99603  -0.04035
           Z           -0.00051   0.04052   0.99918
 This molecule is an asymmetric top.
 Rotational symmetry number  1.
 Warning -- assumption of classical behavior for rotation
           may cause significant error
 Rotational temperatures (Kelvin)      0.06480     0.06480     0.06478
 Rotational constants (GHZ):           1.35030     1.35016     1.34988
 Zero-point vibrational energy     390064.5 (Joules/Mol)
                                   93.22765 (Kcal/Mol)
 Warning -- explicit consideration of  33 degrees of freedom as
           vibrations may cause significant error
 Vibrational temperatures:     99.70   100.19   101.68   127.17   128.02
          (Kelvin)            128.82   149.15   149.81   150.49   308.26
                              313.48   355.56   355.60   393.39   398.30
                              399.03   459.18   459.79   459.97   471.18
                              533.14   534.88   536.14   555.92   558.51
                              558.75   576.46   754.07   755.99   756.26
                              770.71   772.92   773.25  2370.63  2370.84
                             2371.02  2371.56  2371.86  2381.25  5403.14
                             5404.26  5406.32  5406.82  5407.73  5413.81
                             5531.38  5531.44  5534.32  5534.87  5535.14
                             5535.80

 Zero-point correction=                           0.148568 (Hartree/Particle)
 Thermal correction to Energy=                    0.166730
 Thermal correction to Enthalpy=                  0.167674
 Thermal correction to Gibbs Free Energy=         0.103165
 Sum of electronic and zero-point Energies=          -1609.037802
 Sum of electronic and thermal Energies=             -1609.019640
 Sum of electronic and thermal Enthalpies=           -1609.018696
 Sum of electronic and thermal Free Energies=        -1609.083205

                     E (Thermal)             CV                S
                      KCal/Mol        Cal/Mol-Kelvin    Cal/Mol-Kelvin
 Total                  104.624             60.331            135.770
 Electronic               0.000              0.000              3.561
 Translational            0.889              2.981             41.174
 Rotational               0.889              2.981             29.259
 Vibrational            102.847             54.369             61.776
 Vibration     1          0.598              1.969              4.173
 Vibration     2          0.598              1.969              4.164
 Vibration     3          0.598              1.968              4.135
 Vibration     4          0.601              1.957              3.695
 Vibration     5          0.602              1.957              3.682
 Vibration     6          0.602              1.957              3.670
 Vibration     7          0.605              1.946              3.384
 Vibration     8          0.605              1.946              3.376
 Vibration     9          0.605              1.946              3.367
 Vibration    10          0.644              1.819              2.007
 Vibration    11          0.646              1.814              1.977
 Vibration    12          0.661              1.768              1.751
 Vibration    13          0.661              1.767              1.751
 Vibration    14          0.676              1.722              1.575
 Vibration    15          0.678              1.716              1.553
 Vibration    16          0.678              1.715              1.550
 Vibration    17          0.705              1.637              1.314
 Vibration    18          0.706              1.636              1.312
 Vibration    19          0.706              1.636              1.312
 Vibration    20          0.711              1.621              1.272
 Vibration    21          0.743              1.533              1.078
 Vibration    22          0.743              1.530              1.073
 Vibration    23          0.744              1.528              1.069
 Vibration    24          0.755              1.499              1.014
 Vibration    25          0.756              1.495              1.007
 Vibration    26          0.757              1.495              1.006
 Vibration    27          0.766              1.469              0.960
 Vibration    28          0.879              1.197              0.601
 Vibration    29          0.880              1.194              0.597
 Vibration    30          0.881              1.193              0.597
 Vibration    31          0.891              1.171              0.575
 Vibration    32          0.892              1.168              0.571
 Vibration    33          0.892              1.167              0.571

 Normal termination of Gaussian 16 at Thu May 23 14:42:25 2024.
 Gaussian 16:  ES64L-G16RevC.02  7-Dec-2021

 ----------------------------------------------------------------------
 #p B3LYP empiricaldispersion=gd3 scf=(maxcycles=500,xqc,maxconventiona
 l=50) scrf=(cpcm,solvent=water) geom=allcheck guess=read chkbasis
 ----------------------------------------------------------------------

 Structure from the checkpoint file:  "Mn_2_B3LYP.chk_solvated"
 -----
 Title
 -----
 Charge =  2 Multiplicity = 6

                         Standard orientation:
 ---------------------------------------------------------------------
 Center     Atomic      Atomic             Coordinates (Angstroms)
 Number     Number       Type             X           Y           Z
 ---------------------------------------------------------------------
      1         25           0        0.000005    0.000020   -0.000169
      2          8           0       -0.779344    2.002101    0.439381
      3          1           0       -1.453496    2.225969    1.096305
      4          8           0       -1.564859   -0.276354   -1.511067
      5          1           0       -1.700776   -1.059439   -2.062937
      6          8           0        1.324726    0.848829   -1.527329
      7          1           0        2.227119    1.170539   -1.392203
      8          8           0        0.776862   -2.003313   -0.438080
      9          1           0        0.513962   -2.829485   -0.007951
     10          8           0        1.566193    0.278190    1.509272
     11          1           0        1.699562    1.060221    2.063445
     12          8           0       -1.323644   -0.849475    1.527909
     13          1           0       -2.226231   -1.171010    1.393659
     14          1           0       -1.116215   -0.974611    2.464609
     15          1           0       -2.251284    0.361376   -1.752465
     16          1           0       -0.514808    2.829673    0.013597
     17          1           0        2.255312   -0.357873    1.748140
     18          1           0        1.118229    0.973718   -2.464250
     19          1           0        1.449021   -2.229401   -1.096423
 ---------------------------------------------------------------------

 SCF Done:  E(UB3LYP) =  -1609.46006426     A.U. after    9 cycles

 The electronic state is 6-A.
 Alpha  occ. eigenvalues -- -235.50168 -27.38347 -23.45604 -23.45603 -23.45603
 Alpha  occ. eigenvalues --  -19.21387 -19.21387 -19.21387 -19.21386 -19.21382
 Alpha  occ. eigenvalues --  -19.21382  -3.30229  -2.16830  -2.16830  -2.16829
 Alpha  occ. eigenvalues --   -1.07820  -1.07323  -1.07315  -1.07309  -1.07197
 Alpha  occ. eigenvalues --   -1.07189  -0.59132  -0.59128  -0.59122  -0.59046
 Alpha  occ. eigenvalues --   -0.59041  -0.59036  -0.52319  -0.50063  -0.50058
 Alpha  occ. eigenvalues --   -0.48175  -0.48170  -0.48165  -0.39371  -0.39365
 Alpha  occ. eigenvalues --   -0.39358  -0.38064  -0.38060  -0.38056  -0.33111
 Alpha  occ. eigenvalues --   -0.33107  -0.33106  -0.29430  -0.29428
 Alpha virt. eigenvalues --   -0.05331  -0.01159  -0.01158  -0.01156   0.03454
 Alpha virt. eigenvalues --    0.04599   0.04602   0.08720   0.08724   0.08728
 Alpha virt. eigenvalues --    0.09373   0.09376   0.09380   0.12974   0.14422

  Beta  occ. eigenvalues -- -235.50058 -27.30070 -23.38713 -23.38712 -23.38712
  Beta  occ. eigenvalues --  -19.21275 -19.21274 -19.21274 -19.21273 -19.21269
  Beta  occ. eigenvalues --  -19.21269  -3.08142  -1.93500  -1.93500  -1.93498
  Beta  occ. eigenvalues --   -1.07616  -1.07121  -1.07113  -1.07107  -1.06992
  Beta  occ. eigenvalues --   -1.06985  -0.58956  -0.58951  -0.58946  -0.58923
  Beta  occ. eigenvalues --   -0.58917  -0.58913  -0.51581  -0.47725  -0.47722
  Beta  occ. eigenvalues --   -0.47719  -0.47715  -0.47712  -0.38025  -0.38019
  Beta  occ. eigenvalues --   -0.38013  -0.37772  -0.37768  -0.37764
  Beta virt. eigenvalues --   -0.05038  -0.04633  -0.04630  -0.04627  -0.01359
  Beta virt. eigenvalues --   -0.01357  -0.01083  -0.01083  -0.01080   0.03740
  Beta virt. eigenvalues --    0.05752   0.05756   0.08974   0.08977   0.08980

 Mulliken charges and spin densities:
               1          2
     1  Mn   1.276658   4.887508
     2  O   -0.691099   0.012261
     3  H    0.405818   0.003235
     4  O   -0.690982   0.012294
     5  H    0.405824   0.003237
     6  O   -0.691056   0.012287
     7  H    0.405776   0.003234
     8  O   -0.691110   0.012271
     9  H    0.405856   0.003240
    10  O   -0.691084   0.012278
    11  H    0.405855   0.003239
    12  O   -0.691216   0.012253
    13  H    0.405795   0.003236
    14  H    0.405812   0.003237
    15  H    0.405808   0.003236
    16  H    0.405799   0.003238
    17  H    0.405866   0.003239
    18  H    0.405813   0.003236
    19  H    0.405869   0.003239
 Sum of Mulliken charges =   2.00000   5.00000

 Dipole moment (field-independent basis, Debye):
    X=              0.0011    Y=             -0.0004    Z=              0.0052  Tot=              0.0054
 Quadrupole moment (field-independent basis, Debye-Ang):
   XX=            -15.6856   YY=            -15.6974   ZZ=            -15.6948
   XY=             -0.0111   XZ=              0.0028   YZ=             -0.0068

 Normal termination of Gaussian 16 at Thu May 23 14:42:43 2024.
