 Gaussian 16, Revision C.02,
 Gaussian 16:  ES64L-G16RevC.02  7-Dec-2021

 ----------------------------------------------------------------------
 #p B3LYP empiricaldispersion=gd3 opt=(cartesian,calcall,maxcycles=500)
  freq scf=(maxcycles=500,xqc,maxconventional=50)
 ----------------------------------------------------------------------

 ----------------------------
 catecholate ox low_spin spin
 ----------------------------
 Symbolic Z-matrix:
 Charge = -3 Multiplicity = 2

 SCF Done:  E(UB3LYP) =  -2379.36754624     A.U. after   51 cycles
 SCF Done:  E(UB3LYP) =  -2379.36757441     a.u. after    4 cycles
 SCF Done:  E(UB3LYP) =  -2379.38457163     A.U. after   51 cycles
 SCF Done:  E(UB3LYP) =  -2379.38457164     a.u. after    2 cycles
 SCF Done:  E(UB3LYP) =  -2379.40811545     A.U. after   51 cycles
 SCF Done:  E(UB3LYP) =  -2379.40811562     a.u. after    3 cycles
 SCF Done:  E(UB3LYP) =  -2379.42287139     A.U. after   51 cycles
 SCF Done:  E(UB3LYP) =  -2379.42287838     a.u. after    4 cycles
 SCF Done:  E(UB3LYP) =  -2379.42809517     A.U. after   51 cycles
 SCF Done:  E(UB3LYP) =  -2379.42809517     a.u. after    2 cycles
 SCF Done:  E(UB3LYP) =  -2379.43230467     A.U. after   45 cycles
 SCF Done:  E(UB3LYP) =  -2379.43327536     A.U. after   51 cycles
 SCF Done:  E(UB3LYP) =  -2379.43327536     a.u. after    1 cycles
 SCF Done:  E(UB3LYP) =  -2379.43366332     A.U. after   51 cycles
 SCF Done:  E(UB3LYP) =  -2379.43366332     a.u. after    1 cycles
 SCF Done:  E(UB3LYP) =  -2379.43378311     A.U. after   51 cycles
 SCF Done:  E(UB3LYP) =  -2379.43378311     a.u. after    1 cycles
 SCF Done:  E(UB3LYP) =  -2379.43381280     A.U. after   49 cycles
 SCF Done:  E(UB3LYP) =  -2379.43381318     A.U. after   39 cycles
 Optimization completed.
    -- Stationary point found.
 Normal termination of Gaussian 16 at Thu Sep 26 10:52:19 2024.

 ------------------------------------------------------------------
 #P Geom=AllCheck Guess=TCheck SCRF=Check GenChk UB3LYP/STO-3G Freq
 ------------------------------------------------------------------

 Structure from the checkpoint file:  "catecholate_ox_low_spin.chk"
 ----------------------------
 catecholate ox low_spin spin
 ----------------------------
 Charge = -3 Multiplicity = 2

                         Standard orientation:
 ---------------------------------------------------------------------
 Center     Atomic      Atomic             Coordinates (Angstroms)
 Number     Number       Type             X           Y           Z
 ---------------------------------------------------------------------
      1          6           0        1.762159    4.795414   -0.577992
      2          6           0        0.996631    5.011080    0.574589
      3          6           0        0.265396    3.944332    1.177496
      4          6           0        0.303069    2.639215    0.612862
      5          6           0        1.117988    2.409553   -0.615085
      6          6           0        1.831669    3.503541   -1.179431
      7          8           0        1.090729    1.146728   -1.074951
      8          8           0       -0.333946    1.547827    1.072640
      9          1           0        2.319646    5.630044   -1.027895
     10          1           0        0.956463    6.013935    1.024474
     11          1           0       -0.328513    4.129643    2.081746
     12          1           0        2.440679    3.350287   -2.079612
     13         26           0        0.000474    0.013751   -0.002154
     14          6           0       -5.068375   -0.933489   -0.538879
     15          6           0       -4.836945   -1.649685    0.642038
     16          6           0       -3.533115   -1.703488    1.218611
     17          6           0       -2.440602   -1.028994    0.603526
     18          6           0       -2.683360   -0.259726   -0.660812
     19          6           0       -4.006032   -0.239458   -1.192983
     20          8           0       -1.612421    0.353838   -1.183308
     21          8           0       -1.175504   -1.006810    1.054271
     22          1           0       -6.079633   -0.903235   -0.971182
     23          1           0       -5.666395   -2.179785    1.133081
     24          1           0       -3.366910   -2.271949    2.142926
     25          1           0       -4.207621    0.317475   -2.117481
     26          6           0        3.273454   -3.917646   -0.620437
     27          6           0        3.851883   -3.405907    0.548579
     28          6           0        3.309128   -2.250205    1.185948
     29          6           0        2.165008   -1.588952    0.651917
     30          6           0        1.547630   -2.141981   -0.600289
     31          6           0        2.127802   -3.295833   -1.198676
     32          8           0        0.471110   -1.478966   -1.054669
     33          8           0        1.574715   -0.499119    1.162983
     34          1           0        3.703767   -4.809060   -1.100264
     35          1           0        4.734923   -3.897605    0.983034
     36          1           0        3.778786   -1.861626    2.099277
     37          1           0        1.684686   -3.710257   -2.113725
 ---------------------------------------------------------------------

 SCF Done:  E(UB3LYP) =  -2379.43381318     A.U. after    1 cycles

 The electronic state is 2-A.
 Alpha  occ. eigenvalues -- -253.21893 -29.18245 -25.62319 -25.62054 -25.61653
 Alpha  occ. eigenvalues --  -18.42201 -18.42173 -18.41602 -18.41554 -18.40817
 Alpha  occ. eigenvalues --  -18.40777  -9.62599  -9.62511  -9.61515  -9.61482
 Alpha  occ. eigenvalues --   -9.61424  -9.61390  -9.60047  -9.59975  -9.58988
 Alpha  occ. eigenvalues --   -9.58975  -9.58904  -9.58887  -9.57864  -9.57850
 Alpha  occ. eigenvalues --   -9.56881  -9.56800  -9.56684  -9.56587  -3.05194
 Alpha  occ. eigenvalues --   -1.85545  -1.84774  -1.83732  -0.54468  -0.53045
 Alpha  occ. eigenvalues --   -0.52548  -0.49751  -0.48886  -0.48792  -0.38667
 Alpha  occ. eigenvalues --   -0.37673  -0.37601  -0.29396  -0.28432  -0.28384
 Alpha  occ. eigenvalues --   -0.26408  -0.25391  -0.25159  -0.15550  -0.14898
 Alpha  occ. eigenvalues --   -0.14559  -0.14516  -0.13993  -0.13897  -0.07012
 Alpha  occ. eigenvalues --   -0.06037  -0.05718  -0.02690  -0.01842  -0.01783
 Alpha  occ. eigenvalues --   -0.01560  -0.00758  -0.00571   0.01926   0.02846
 Alpha  occ. eigenvalues --    0.02888   0.03358   0.05170   0.05451   0.06111
 Alpha  occ. eigenvalues --    0.06332   0.06826   0.06838   0.08867   0.08976
 Alpha  occ. eigenvalues --    0.09484   0.10306   0.11364   0.14452   0.15126
 Alpha  occ. eigenvalues --    0.15706   0.15931   0.16775   0.17062   0.22295
 Alpha  occ. eigenvalues --    0.22969   0.24257   0.24644   0.24709   0.25584
 Alpha  occ. eigenvalues --    0.25684   0.25930   0.26183   0.31087   0.31664
 Alpha  occ. eigenvalues --    0.32837   0.33775   0.36601   0.39510
 Alpha virt. eigenvalues --    0.50265   0.50461   0.51213   0.51390   0.51444
 Alpha virt. eigenvalues --    0.51467   0.60363   0.60990   0.65189   0.66073
 Alpha virt. eigenvalues --    0.66103   0.68267   0.70934   0.71472   0.73223

  Beta  occ. eigenvalues -- -253.21884 -29.17126 -25.61398 -25.61064 -25.60659
  Beta  occ. eigenvalues --  -18.42215 -18.42189 -18.41606 -18.41558 -18.40858
  Beta  occ. eigenvalues --  -18.40812  -9.62593  -9.62505  -9.61518  -9.61486
  Beta  occ. eigenvalues --   -9.61427  -9.61395  -9.60043  -9.59973  -9.58986
  Beta  occ. eigenvalues --   -9.58975  -9.58911  -9.58897  -9.57868  -9.57857
  Beta  occ. eigenvalues --   -9.56884  -9.56810  -9.56685  -9.56596  -2.99222
  Beta  occ. eigenvalues --   -1.79340  -1.78272  -1.77149  -0.54502  -0.53082
  Beta  occ. eigenvalues --   -0.52594  -0.49788  -0.48959  -0.48873  -0.38667
  Beta  occ. eigenvalues --   -0.37689  -0.37617  -0.29402  -0.28445  -0.28409
  Beta  occ. eigenvalues --   -0.26409  -0.25411  -0.25179  -0.15553  -0.14894
  Beta  occ. eigenvalues --   -0.14568  -0.14528  -0.14009  -0.13920  -0.07013
  Beta  occ. eigenvalues --   -0.06041  -0.05723  -0.02686  -0.01845  -0.01791
  Beta  occ. eigenvalues --   -0.01583  -0.00779  -0.00585   0.01929   0.02849
  Beta  occ. eigenvalues --    0.02901   0.03357   0.05173   0.05479   0.06114
  Beta  occ. eigenvalues --    0.06321   0.06810   0.06827   0.08860   0.08928
  Beta  occ. eigenvalues --    0.09467   0.10361   0.11234   0.14475   0.15119
  Beta  occ. eigenvalues --    0.15678   0.15998   0.16771   0.17036   0.22465
  Beta  occ. eigenvalues --    0.22632   0.24423   0.24562   0.24922   0.25544
  Beta  occ. eigenvalues --    0.25630   0.26004   0.26166   0.31452   0.32249
  Beta  occ. eigenvalues --    0.32846   0.40185   0.42603
  Beta virt. eigenvalues --    0.50238   0.50384   0.51104   0.51363   0.51413
  Beta virt. eigenvalues --    0.51463   0.62714   0.63369   0.63807   0.65413
  Beta virt. eigenvalues --    0.66044   0.66091   0.68463   0.70934   0.71476

 Mulliken charges and spin densities:
               1          2
     1  C   -0.148995   0.004181
     2  C   -0.149246   0.000381
     3  C   -0.168044  -0.002654
     4  C    0.045188   0.004595
     5  C    0.045305   0.003484
     6  C   -0.168145  -0.004116
     7  O   -0.325792  -0.006255
     8  O   -0.326314  -0.010381
     9  H   -0.011869  -0.000225
    10  H   -0.011916  -0.000075
    11  H    0.003463   0.000121
    12  H    0.003448   0.000180
    13  Fe   0.711978   1.082205
    14  C   -0.152786  -0.007526
    15  C   -0.152682   0.004365
    16  C   -0.171021  -0.006280
    17  C    0.042009  -0.003010
    18  C    0.041320  -0.000357
    19  C   -0.173617  -0.005505
    20  O   -0.317040  -0.013282
    21  O   -0.332307  -0.004226
    22  H   -0.015958   0.000220
    23  H   -0.015357  -0.000149
    24  H    0.000296   0.000402
    25  H   -0.002758   0.000190
    26  C   -0.152942   0.003208
    27  C   -0.153141  -0.008791
    28  C   -0.172540   0.000080
    29  C    0.040529   0.002044
    30  C    0.040972  -0.008497
    31  C   -0.170080  -0.001049
    32  O   -0.331701  -0.001407
    33  O   -0.317279  -0.022123
    34  H   -0.015356  -0.000212
    35  H   -0.015934   0.000368
    36  H   -0.002267   0.000080
    37  H    0.000576   0.000017
 Sum of Mulliken charges =  -3.00000   1.00000

 Dipole moment (field-independent basis, Debye):
    X=              0.2498    Y=              0.8210    Z=              0.0060  Tot=              0.8582
 Quadrupole moment (field-independent basis, Debye-Ang):
   XX=           -255.0698   YY=           -249.9847   ZZ=           -164.6197
   XY=              1.0666   XZ=             -0.6274   YZ=              0.1571

  Exact polarizability:     244.134      -1.998     233.837      -0.730       0.349     116.020
 Approx polarizability:     396.537      -3.543     379.404      -4.012       1.358     247.693

                      1                      2                      3
                      A                      A                      A
 Frequencies --     34.2386                34.3699                52.6404
 Red. masses --      6.1782                 6.1698                 7.0062
 Frc consts  --      0.0043                 0.0043                 0.0114
 IR Inten    --      0.3143                 0.3002                 0.8080

                      4                      5                      6
                      A                      A                      A
 Frequencies --     74.8440                77.2101                91.4610
 Red. masses --      4.7536                 4.7128                 4.2741
 Frc consts  --      0.0157                 0.0166                 0.0211
 IR Inten    --      0.2121                 0.2622                 0.1597

                      7                      8                      9
                      A                      A                      A
 Frequencies --    173.8588               174.3874               180.9308
 Red. masses --      8.2503                 7.4671                 7.2821
 Frc consts  --      0.1469                 0.1338                 0.1405
 IR Inten    --      3.8735                 1.5506                 2.8685

                     10                     11                     12
                      A                      A                      A
 Frequencies --    189.7899               202.0802               206.4584
 Red. masses --      7.0957                 7.7324                 7.9071
 Frc consts  --      0.1506                 0.1860                 0.1986
 IR Inten    --      0.5138                 1.8769                 0.4720

                     13                     14                     15
                      A                      A                      A
 Frequencies --    227.6360               234.9881               262.4220
 Red. masses --      8.6093                 8.4372                 9.5379
 Frc consts  --      0.2628                 0.2745                 0.3870
 IR Inten    --      1.2142                 0.2038                 1.6626

                     16                     17                     18
                      A                      A                      A
 Frequencies --    288.9040               317.7830               326.8609
 Red. masses --      8.3007                 7.4833                 7.0870
 Frc consts  --      0.4082                 0.4452                 0.4461
 IR Inten    --     32.8243                34.6089                14.3288

                     19                     20                     21
                      A                      A                      A
 Frequencies --    345.1155               370.2806               389.9683
 Red. masses --      9.0064                13.0298                14.9587
 Frc consts  --      0.6320                 1.0526                 1.3403
 IR Inten    --     11.7503                77.7135               118.5414

                     22                     23                     24
                      A                      A                      A
 Frequencies --    439.9129               442.4936               442.8434
 Red. masses --      3.5828                 3.6996                 3.8817
 Frc consts  --      0.4085                 0.4268                 0.4485
 IR Inten    --      2.1468                 5.7135                 8.6227

                     25                     26                     27
                      A                      A                      A
 Frequencies --    449.0051               454.5484               475.8122
 Red. masses --      9.8246                13.6257                13.6980
 Frc consts  --      1.1670                 1.6587                 1.8272
 IR Inten    --      8.0308                 2.3590                 0.7280

                     28                     29                     30
                      A                      A                      A
 Frequencies --    508.3796               509.7847               517.9428
 Red. masses --      9.7788                 9.6631                 9.7648
 Frc consts  --      1.4891                 1.4796                 1.5434
 IR Inten    --      0.6367                 1.8693                 2.3717

                     31                     32                     33
                      A                      A                      A
 Frequencies --    575.1780               575.7018               577.9251
 Red. masses --      5.6136                 5.6352                 5.4684
 Frc consts  --      1.0942                 1.1004                 1.0761
 IR Inten    --      0.0138                 0.0372                 0.0022

                     34                     35                     36
                      A                      A                      A
 Frequencies --    600.0252               601.9953               605.1115
 Red. masses --      6.7810                 6.5840                 7.5243
 Frc consts  --      1.4384                 1.4058                 1.6232
 IR Inten    --      4.4623                 0.7400                21.4896

                     37                     38                     39
                      A                      A                      A
 Frequencies --    607.3485               611.4630               614.7099
 Red. masses --      7.8812                 6.8836                 8.0594
 Frc consts  --      1.7128                 1.5164                 1.7943
 IR Inten    --     24.8267                10.1361                 9.8251

                     40                     41                     42
                      A                      A                      A
 Frequencies --    724.8631               725.6758               732.2882
 Red. masses --      1.2604                 1.2502                 1.2391
 Frc consts  --      0.3902                 0.3879                 0.3915
 IR Inten    --     18.6018                18.1587                19.8059

                     43                     44                     45
                      A                      A                      A
 Frequencies --    734.8915               737.0437               744.2783
 Red. masses --      8.3246                 8.9971                10.0879
 Frc consts  --      2.6489                 2.8796                 3.2925
 IR Inten    --      0.9030                 0.6423                 0.1861

                     46                     47                     48
                      A                      A                      A
 Frequencies --    782.0360               785.7458               791.6145
 Red. masses --      1.2626                 1.2679                 1.3043
 Frc consts  --      0.4550                 0.4612                 0.4816
 IR Inten    --      0.0253                 0.0508                 0.3094

                     49                     50                     51
                      A                      A                      A
 Frequencies --    792.6245               796.3320               809.3232
 Red. masses --      5.2498                 6.0287                 6.0375
 Frc consts  --      1.9433                 2.2525                 2.3300
 IR Inten    --      6.9160                 4.1745                 0.2492

                     52                     53                     54
                      A                      A                      A
 Frequencies --    839.0976               844.5117               848.8689
 Red. masses --      1.3456                 1.3435                 1.3504
 Frc consts  --      0.5582                 0.5645                 0.5733
 IR Inten    --     10.6152                10.1948                 9.7560

                     55                     56                     57
                      A                      A                      A
 Frequencies --    918.4938               919.4059               922.6721
 Red. masses --      6.1458                 6.1211                 6.1519
 Frc consts  --      3.0548                 3.0485                 3.0857
 IR Inten    --      8.9441                 6.7972                22.6067

                     58                     59                     60
                      A                      A                      A
 Frequencies --    943.3076               944.0932               951.3328
 Red. masses --      1.1101                 1.1125                 1.1191
 Frc consts  --      0.5820                 0.5842                 0.5967
 IR Inten    --      0.0828                 0.0291                 0.0509

                     61                     62                     63
                      A                      A                      A
 Frequencies --   1088.5767              1088.6870              1088.9841
 Red. masses --      2.0760                 2.0710                 2.0725
 Frc consts  --      1.4494                 1.4462                 1.4481
 IR Inten    --     14.1758                12.9671                 2.1463

                     64                     65                     66
                      A                      A                      A
 Frequencies --   1165.5815              1166.6810              1167.0438
 Red. masses --      1.8076                 1.8016                 1.7739
 Frc consts  --      1.4469                 1.4448                 1.4235
 IR Inten    --     10.9979                12.8629                14.1650

                     67                     68                     69
                      A                      A                      A
 Frequencies --   1257.7612              1258.0193              1259.1945
 Red. masses --      1.1344                 1.1277                 1.1161
 Frc consts  --      1.0573                 1.0515                 1.0426
 IR Inten    --      8.7822                13.6650                 4.3712

                     70                     71                     72
                      A                      A                      A
 Frequencies --   1295.2417              1295.3703              1297.9789
 Red. masses --      2.3098                 2.3151                 2.3184
 Frc consts  --      2.2831                 2.2888                 2.3013
 IR Inten    --      4.9918                 1.2350                 3.5092

                     73                     74                     75
                      A                      A                      A
 Frequencies --   1343.0167              1344.7257              1352.6169
 Red. masses --      9.2483                 9.7313                10.1906
 Frc consts  --      9.8282                10.3678                10.9850
 IR Inten    --    233.2426               257.6561                47.4993

                     76                     77                     78
                      A                      A                      A
 Frequencies --   1416.8839              1423.3092              1425.4836
 Red. masses --      2.4810                 2.4327                 2.4427
 Frc consts  --      2.9346                 2.9036                 2.9244
 IR Inten    --      1.9153                 9.1996                 0.7527

                     79                     80                     81
                      A                      A                      A
 Frequencies --   1445.8888              1448.2035              1455.8314
 Red. masses --      2.4935                 2.4785                 2.4254
 Frc consts  --      3.0714                 3.0627                 3.0287
 IR Inten    --    186.5570               214.0328                33.8061

                     82                     83                     84
                      A                      A                      A
 Frequencies --   1597.2766              1598.2914              1598.7222
 Red. masses --      2.2687                 2.2825                 2.2799
 Frc consts  --      3.4102                 3.4353                 3.4333
 IR Inten    --      1.0284                 3.0077                 0.6678

                     85                     86                     87
                      A                      A                      A
 Frequencies --   1620.4709              1624.6626              1630.0129
 Red. masses --      6.5805                 6.7278                 6.9224
 Frc consts  --     10.1811                10.4628                10.8365
 IR Inten    --    444.1536               358.4727                34.1226

                     88                     89                     90
                      A                      A                      A
 Frequencies --   1674.2641              1676.5373              1679.9460
 Red. masses --      4.8036                 4.7808                 4.9160
 Frc consts  --      7.9335                 7.9172                 8.1743
 IR Inten    --    110.4424                24.5313               197.8375

                     91                     92                     93
                      A                      A                      A
 Frequencies --   1692.6310              1695.9459              1701.1197
 Red. masses --      3.6819                 3.7616                 3.8751
 Frc consts  --      6.2150                 6.3745                 6.6069
 IR Inten    --     20.2887                42.7775                42.9964

                     94                     95                     96
                      A                      A                      A
 Frequencies --   3343.1871              3343.5976              3349.8170
 Red. masses --      1.0832                 1.0832                 1.0835
 Frc consts  --      7.1331                 7.1347                 7.1634
 IR Inten    --      0.5162                 0.6235                 0.4388

                     97                     98                     99
                      A                      A                      A
 Frequencies --   3364.3796              3364.4333              3371.1534
 Red. masses --      1.0910                 1.0911                 1.0917
 Frc consts  --      7.2756                 7.2765                 7.3100
 IR Inten    --     62.4271                45.8028                59.5640

                    100                    101                    102
                      A                      A                      A
 Frequencies --   3383.9329              3384.3244              3391.5201
 Red. masses --      1.0944                 1.0944                 1.0944
 Frc consts  --      7.3839                 7.3854                 7.4170
 IR Inten    --     43.0753                49.0597                40.0837

                    103                    104                    105
                      A                      A                      A
 Frequencies --   3394.0314              3394.3497              3400.1402
 Red. masses --      1.0999                 1.0996                 1.0997
 Frc consts  --      7.4651                 7.4648                 7.4909
 IR Inten    --     19.2073                14.8472                10.0703

 - Thermochemistry -
 -------------------
 Temperature   298.150 Kelvin.  Pressure   1.00000 Atm.
 Atom     1 has atomic number  6 and mass  12.00000

 Molecular mass:   379.99833 amu.
 Principal axes and moments of inertia in atomic units:
                           1         2         3
     Eigenvalues --  8362.664248465.78689**********
           X            0.99997   0.00812  -0.00058
           Y           -0.00812   0.99997   0.00015
           Z            0.00058  -0.00015   1.00000
 This molecule is an asymmetric top.
 Rotational symmetry number  1.
 Warning -- assumption of classical behavior for rotation
           may cause significant error
 Rotational temperatures (Kelvin)      0.01036     0.01023     0.00591
 Rotational constants (GHZ):           0.21581     0.21318     0.12319
 Zero-point vibrational energy     708875.5 (Joules/Mol)
                                  169.42532 (Kcal/Mol)
 Warning -- explicit consideration of  39 degrees of freedom as
           vibrations may cause significant error
 Vibrational temperatures:     49.26    49.45    75.74   107.68   111.09
          (Kelvin)            131.59   250.14   250.90   260.32   273.07
                              290.75   297.05   327.52   338.10   377.57
                              415.67   457.22   470.28   496.54   532.75
                              561.08   632.94   636.65   637.15   646.02
                              653.99   684.59   731.44   733.47   745.20
                              827.55   828.31   831.51   863.30   866.14
                              870.62   873.84   879.76   884.43  1042.92
                             1044.09  1053.60  1057.35  1060.44  1070.85
                             1125.18  1130.51  1138.96  1140.41  1145.74
                             1164.44  1207.27  1215.06  1221.33  1321.51
                             1322.82  1327.52  1357.21  1358.34  1368.76
                             1566.22  1566.38  1566.81  1677.01  1678.59
                             1679.12  1809.64  1810.01  1811.70  1863.56
                             1863.75  1867.50  1932.30  1934.76  1946.11
                             2038.58  2047.82  2050.95  2080.31  2083.64
                             2094.62  2298.12  2299.58  2300.20  2331.50
                             2337.53  2345.23  2408.89  2412.16  2417.07
                             2435.32  2440.09  2447.53  4810.10  4810.69
                             4819.64  4840.59  4840.67  4850.34  4868.72
                             4869.29  4879.64  4883.25  4883.71  4892.04

 Zero-point correction=                           0.269996 (Hartree/Particle)
 Thermal correction to Energy=                    0.290493
 Thermal correction to Enthalpy=                  0.291437
 Thermal correction to Gibbs Free Energy=         0.220293
 Sum of electronic and zero-point Energies=          -2379.163817
 Sum of electronic and thermal Energies=             -2379.143321
 Sum of electronic and thermal Enthalpies=           -2379.142376
 Sum of electronic and thermal Free Energies=        -2379.213520

                     E (Thermal)             CV                S
                      KCal/Mol        Cal/Mol-Kelvin    Cal/Mol-Kelvin
 Total                  182.287             82.043            149.734
 Electronic               0.000              0.000              1.377
 Translational            0.889              2.981             43.697
 Rotational               0.889              2.981             35.293
 Vibrational            180.509             76.081             69.366
 Vibration     1          0.594              1.983              5.567
 Vibration     2          0.594              1.983              5.560
 Vibration     3          0.596              1.977              4.716
 Vibration     4          0.599              1.966              4.022
 Vibration     5          0.599              1.964              3.961
 Vibration     6          0.602              1.955              3.629
 Vibration     7          0.627              1.875              2.393
 Vibration     8          0.627              1.874              2.388
 Vibration     9          0.630              1.866              2.319
 Vibration    10          0.633              1.854              2.230
 Vibration    11          0.639              1.837              2.114
 Vibration    12          0.641              1.831              2.075
 Vibration    13          0.651              1.799              1.898
 Vibration    14          0.655              1.787              1.841
 Vibration    15          0.670              1.742              1.646
 Vibration    16          0.685              1.694              1.480
 Vibration    17          0.704              1.640              1.321
 Vibration    18          0.711              1.622              1.276
 Vibration    19          0.723              1.585              1.188
 Vibration    20          0.742              1.533              1.079
 Vibration    21          0.758              1.492              1.000
 Vibration    22          0.800              1.383              0.827
 Vibration    23          0.802              1.377              0.819
 Vibration    24          0.802              1.377              0.818
 Vibration    25          0.808              1.363              0.799
 Vibration    26          0.813              1.351              0.782
 Vibration    27          0.832              1.304              0.721
 Vibration    28          0.864              1.231              0.638
 Vibration    29          0.865              1.228              0.634
 Vibration    30          0.873              1.210              0.615
 Vibration    31          0.932              1.085              0.494
 Vibration    32          0.932              1.084              0.493
 Vibration    33          0.934              1.079              0.489
 Vibration    34          0.958              1.032              0.450
 Vibration    35          0.960              1.028              0.446
 Vibration    36          0.964              1.021              0.441
 Vibration    37          0.966              1.016              0.437
 Vibration    38          0.971              1.008              0.430
 Vibration    39          0.974              1.001              0.425

 Optimization completed.
    -- Stationary point found.
 Normal termination of Gaussian 16 at Thu Sep 26 10:52:36 2024.
