 Gaussian 16, Revision C.02,
 Gaussian 16:  ES64L-G16RevC.02  7-Dec-2021

 ----------------------------------------------------------------------
 #p B3LYP empiricaldispersion=gd3 opt=(cartesian,calcall,maxcycles=500)
  freq scf=(maxcycles=500,xqc,maxconventional=50)
 ----------------------------------------------------------------------

 ---------------------------
 maltolate red low_spin spin
 ---------------------------
 Symbolic Z-matrix:
 Charge = -1 Multiplicity = 1

 SCF Done:  E(RB3LYP) =  -2603.97713551     A.U. after   50 cycles
 SCF Done:  E(RB3LYP) =  -2604.02733608     A.U. after   30 cycles
 SCF Done:  E(RB3LYP) =  -2604.08467142     A.U. after   33 cycles
 SCF Done:  E(RB3LYP) =  -2604.10195426     A.U. after   32 cycles
 SCF Done:  E(RB3LYP) =  -2604.11828661     A.U. after   35 cycles
 SCF Done:  E(RB3LYP) =  -2604.12706472     A.U. after   33 cycles
 SCF Done:  E(RB3LYP) =  -2604.13148390     A.U. after   38 cycles
 SCF Done:  E(RB3LYP) =  -2604.13359387     A.U. after   38 cycles
 SCF Done:  E(RB3LYP) =  -2604.13499835     A.U. after   34 cycles
 SCF Done:  E(RB3LYP) =  -2604.13606764     A.U. after   35 cycles
 SCF Done:  E(RB3LYP) =  -2604.13794549     A.U. after   21 cycles
 SCF Done:  E(RB3LYP) =  -2604.13794616     A.U. after   22 cycles
 SCF Done:  E(RB3LYP) =  -2604.13794724     A.U. after   16 cycles
 SCF Done:  E(RB3LYP) =  -2604.13794643     A.U. after   15 cycles
 SCF Done:  E(RB3LYP) =  -2604.13794679     A.U. after   15 cycles
 SCF Done:  E(RB3LYP) =  -2604.13794720     A.U. after    5 cycles
 SCF Done:  E(RB3LYP) =  -2604.13794489     A.U. after   16 cycles
 SCF Done:  E(RB3LYP) =  -2604.13794624     A.U. after   15 cycles
 SCF Done:  E(RB3LYP) =  -2604.13794695     A.U. after    5 cycles
 Optimization completed.
    -- Stationary point found.

 1\1\GINC-I300\Freq\RB3LYP\STO-3G\C18H15Fe1O9(1-)\HHARB\26-Sep-2024\0\\
 #p B3LYP empiricaldispersion=gd3 opt=(cartesian,calcall,maxcycles=500)
  freq scf=(maxcycles=500,xqc,maxconventional=50)\\maltolate red low_sp
 in spin\\-1,1\C,1.9135981808,-1.1951403309,-0.8013444257\C,0.442311551
 8,-1.2596126929,-0.4146368477\C,-0.3809098123,-0.1538759854,-0.2116967
 778\C,-1.8001691456,-0.3608773265,0.1645642073\O,-2.4587786915,0.79263
 48535,0.3146636429\C,-2.2774558101,-1.7101354376,0.3126326059\C,-1.392
 1742206,-2.7447432473,0.0961694757\O,-0.0376396375,-2.6151203002,-0.26

 Normal termination of Gaussian 16 at Thu Sep 26 11:01:09 2024.

 ------------------------------------------------------------------
 #P Geom=AllCheck Guess=TCheck SCRF=Check GenChk RB3LYP/STO-3G Freq
 ------------------------------------------------------------------

 Structure from the checkpoint file:  "maltolate_red_low_spin.chk"
 ---------------------------
 maltolate red low_spin spin
 ---------------------------
 Charge = -1 Multiplicity = 1

                         Standard orientation:
 ---------------------------------------------------------------------
 Center     Atomic      Atomic             Coordinates (Angstroms)
 Number     Number       Type             X           Y           Z
 ---------------------------------------------------------------------
      1          6           0        2.204409    3.617958    2.173801
      2          6           0        2.569915    2.851780    0.909776
      3          6           0        1.794334    1.850807    0.328347
      4          6           0        2.272004    1.183093   -0.906444
      5          8           0        1.416001    0.254718   -1.344925
      6          6           0        3.534400    1.594772   -1.460610
      7          6           0        4.237704    2.590930   -0.817161
      8          8           0        3.838611    3.264574    0.352878
      9          8           0        0.605094    1.377185    0.755450
     10          1           0        2.950745    3.481470    2.977928
     11          1           0        2.105401    4.704417    1.993862
     12          1           0        1.235105    3.232234    2.527647
     13          1           0        3.944759    1.139065   -2.369404
     14          1           0        5.210697    2.966870   -1.168291
     15         26           0       -0.000035    0.000079   -0.396942
     16          6           0       -4.235281    0.099863    2.174042
     17          6           0       -3.754681    0.799558    0.909981
     18          6           0       -2.500003    0.628559    0.328553
     19          6           0       -2.160773    1.375996   -0.906337
     20          8           0       -0.928772    1.099019   -1.344900
     21          6           0       -3.148680    2.263189   -1.460542
     22          6           0       -4.363047    2.374043   -0.817091
     23          8           0       -4.746734    1.691607    0.353022
     24          8           0       -1.495079   -0.164322    0.755745
     25          1           0       -4.490661    0.814431    2.978056
     26          1           0       -5.126366   -0.529546    1.994083
     27          1           0       -3.416319   -0.546300    2.528038
     28          1           0       -2.959341    2.846367   -2.369402
     29          1           0       -5.175252    3.028512   -1.168274
     30          6           0        2.031707   -3.717738    2.173548
     31          6           0        1.185075   -3.651298    0.909749
     32          6           0        0.705773   -2.479202    0.328385
     33          6           0       -0.111589   -2.559129   -0.906216
     34          8           0       -0.487764   -1.353672   -1.344677
     35          6           0       -0.386255   -3.858281   -1.460291
     36          6           0        0.125073   -4.965371   -0.816951
     37          8           0        0.908263   -4.956457    0.352929
     38          8           0        0.890214   -1.212457    0.755417
     39          1           0        1.540712   -4.296070    2.977734
     40          1           0        3.022192   -4.174925    1.993300
     41          1           0        2.182123   -2.685438    2.527476
     42          1           0       -0.986275   -3.985889   -2.368951
     43          1           0       -0.035794   -5.996000   -1.168040
 ---------------------------------------------------------------------

 SCF Done:  E(RB3LYP) =  -2604.13794695     A.U. after    1 cycles

 The electronic state is 1-A.
 Alpha  occ. eigenvalues -- -253.56296 -29.52638 -25.96506 -25.96506 -25.96316
 Alpha  occ. eigenvalues --  -18.85073 -18.85073 -18.85073 -18.75722 -18.75650
 Alpha  occ. eigenvalues --  -18.75649 -18.69631 -18.69567 -18.69566  -9.92027
 Alpha  occ. eigenvalues --   -9.92027  -9.92027  -9.90297  -9.90297  -9.90297
 Alpha  occ. eigenvalues --   -9.90100  -9.90100  -9.90099  -9.89882  -9.89882
 Alpha  occ. eigenvalues --   -9.89882  -9.88247  -9.88247  -9.88247  -9.87826
 Alpha  occ. eigenvalues --   -9.87826  -9.87826  -3.35768  -2.15332  -2.15330
 Alpha  occ. eigenvalues --   -2.14581  -0.88365  -0.88341  -0.88341  -0.85678
 Alpha  occ. eigenvalues --   -0.83812  -0.83812  -0.77940  -0.77694  -0.77693
 Alpha  occ. eigenvalues --   -0.61378  -0.61258  -0.61258  -0.59771  -0.59470
 Alpha  occ. eigenvalues --   -0.59470  -0.52680  -0.52351  -0.52351  -0.44393
 Alpha  occ. eigenvalues --   -0.44282  -0.44282  -0.42319  -0.41817  -0.41817
 Alpha  occ. eigenvalues --   -0.34239  -0.32986  -0.32985  -0.32751  -0.32433
 Alpha  occ. eigenvalues --   -0.32433  -0.29093  -0.28595  -0.28595  -0.27289
 Alpha  occ. eigenvalues --   -0.27289  -0.27234  -0.26535  -0.24934  -0.24934
 Alpha  occ. eigenvalues --   -0.24816  -0.23962  -0.23823  -0.23823  -0.22730
 Alpha  occ. eigenvalues --   -0.22730  -0.21683  -0.21660  -0.21659  -0.21001
 Alpha  occ. eigenvalues --   -0.19836  -0.19836  -0.16688  -0.16688  -0.16077
 Alpha  occ. eigenvalues --   -0.13991  -0.13713  -0.13713  -0.12101  -0.11328
 Alpha  occ. eigenvalues --   -0.11328  -0.08696  -0.08696  -0.06922  -0.05648
 Alpha  occ. eigenvalues --   -0.05648  -0.05368  -0.02713  -0.02713  -0.02021
 Alpha  occ. eigenvalues --    0.02237   0.02237   0.03341   0.10216   0.10994
 Alpha  occ. eigenvalues --    0.10995
 Alpha virt. eigenvalues --    0.17241   0.17518   0.17519   0.23659   0.23933
 Alpha virt. eigenvalues --    0.23933   0.30951   0.30952   0.35968   0.35997
 Alpha virt. eigenvalues --    0.35997   0.36510   0.37519   0.37519   0.43532

 Mulliken charges:
               1
     1  C   -0.225034
     2  C    0.018950
     3  C    0.046138
     4  C    0.051412
     5  O   -0.305336
     6  C   -0.130189
     7  C   -0.010800
     8  O   -0.157825
     9  O   -0.302342
    10  H    0.062940
    11  H    0.061924
    12  H    0.091091
    13  H    0.069310
    14  H    0.062506
    15  Fe   1.001747
    16  C   -0.225035
    17  C    0.018951
    18  C    0.046139
    19  C    0.051416
    20  O   -0.305322
    21  C   -0.130190
    22  C   -0.010805
    23  O   -0.157822
    24  O   -0.302333
    25  H    0.062938
    26  H    0.061925
    27  H    0.091094
    28  H    0.069309
    29  H    0.062507
    30  C   -0.225035
    31  C    0.018948
    32  C    0.046137
    33  C    0.051409
    34  O   -0.305332
    35  C   -0.130189
    36  C   -0.010802
    37  O   -0.157826
    38  O   -0.302343
    39  H    0.062939
    40  H    0.061925
    41  H    0.091090
    42  H    0.069310
    43  H    0.062506
 Sum of Mulliken charges =  -1.00000

 Dipole moment (field-independent basis, Debye):
    X=             -0.0000    Y=             -0.0001    Z=             -0.9919  Tot=              0.9919
 Quadrupole moment (field-independent basis, Debye-Ang):
   XX=           -181.0420   YY=           -181.0399   ZZ=           -162.2485
   XY=              0.0002   XZ=              0.0003   YZ=              0.0003

  Exact polarizability:     441.495      -0.001     441.442       0.003      -0.002     138.352
 Approx polarizability:    1148.198       0.086    1148.004       0.015      -0.040     268.387

                      1                      2                      3
                      A                      A                      A
 Frequencies --     24.1202                24.1896                39.0430
 Red. masses --      6.8014                 6.8070                 7.2767
 Frc consts  --      0.0023                 0.0023                 0.0065
 IR Inten    --      0.4341                 0.4341                 0.1863

                      4                      5                      6
                      A                      A                      A
 Frequencies --     53.4222                53.5073                56.3991
 Red. masses --      4.1062                 4.1040                 3.7855
 Frc consts  --      0.0069                 0.0069                 0.0071
 IR Inten    --      0.1746                 0.1744                 0.0173

                      7                      8                      9
                      A                      A                      A
 Frequencies --    127.6404               127.9119               128.2278
 Red. masses --      1.0289                 1.0253                 1.0258
 Frc consts  --      0.0099                 0.0099                 0.0099
 IR Inten    --      0.0934                 0.1164                 0.1163

                     10                     11                     12
                      A                      A                      A
 Frequencies --    146.5531               147.9811               148.0325
 Red. masses --      4.3551                 4.0787                 4.0777
 Frc consts  --      0.0551                 0.0526                 0.0526
 IR Inten    --      1.1242                 0.1461                 0.1457

                     13                     14                     15
                      A                      A                      A
 Frequencies --    156.4302               166.2932               166.3511
 Red. masses --      4.1206                 4.1687                 4.1689
 Frc consts  --      0.0594                 0.0679                 0.0680
 IR Inten    --      0.0872                 7.0302                 7.0304

                     16                     17                     18
                      A                      A                      A
 Frequencies --    202.0981               202.1315               203.7311
 Red. masses --      6.5914                 6.5907                 8.4781
 Frc consts  --      0.1586                 0.1587                 0.2073
 IR Inten    --      1.6414                 1.6296                 0.0011

                     19                     20                     21
                      A                      A                      A
 Frequencies --    231.5686               231.7020               251.0335
 Red. masses --      7.0372                 7.0437                 5.4076
 Frc consts  --      0.2223                 0.2228                 0.2008
 IR Inten    --      7.8387                 7.8596                 0.0114

                     22                     23                     24
                      A                      A                      A
 Frequencies --    268.1876               311.5484               324.9948
 Red. masses --      8.4848                 6.0600                 5.5832
 Frc consts  --      0.3596                 0.3466                 0.3474
 IR Inten    --      0.0256                 1.8420                39.0051

                     25                     26                     27
                      A                      A                      A
 Frequencies --    325.0132               334.1496               334.1627
 Red. masses --      5.5835                 6.2884                 6.2820
 Frc consts  --      0.3475                 0.4137                 0.4133
 IR Inten    --     39.0115                39.1195                39.3654

                     28                     29                     30
                      A                      A                      A
 Frequencies --    364.9829               365.0401               368.0605
 Red. masses --     10.2592                10.2558                 6.2426
 Frc consts  --      0.8052                 0.8052                 0.4983
 IR Inten    --     87.6191                87.6171                 0.0793

                     31                     32                     33
                      A                      A                      A
 Frequencies --    405.1816               405.2268               415.4954
 Red. masses --     11.3239                11.3262                10.9357
 Frc consts  --      1.0953                 1.0958                 1.1123
 IR Inten    --     36.1780                35.9457                18.2665

                     34                     35                     36
                      A                      A                      A
 Frequencies --    485.4662               485.4809               486.2367
 Red. masses --      6.8395                 6.8396                 6.7958
 Frc consts  --      0.9497                 0.9498                 0.9466
 IR Inten    --     27.1250                27.1504                 0.1133

                     37                     38                     39
                      A                      A                      A
 Frequencies --    492.8742               498.4498               498.4831
 Red. masses --      5.8860                 8.2141                 8.2100
 Frc consts  --      0.8424                 1.2024                 1.2020
 IR Inten    --      2.9183                38.4511                38.2607

                     40                     41                     42
                      A                      A                      A
 Frequencies --    519.6428               519.6562               536.7586
 Red. masses --      7.5570                 7.5574                10.6079
 Frc consts  --      1.2023                 1.2024                 1.8007
 IR Inten    --    162.1639               162.3140                75.0882

                     43                     44                     45
                      A                      A                      A
 Frequencies --    536.7874               540.1281               585.7813
 Red. masses --     10.6096                 9.8296                 9.8029
 Frc consts  --      1.8012                 1.6896                 1.9819
 IR Inten    --     75.2228                 2.3441                 2.2828

                     46                     47                     48
                      A                      A                      A
 Frequencies --    612.9526               612.9625               615.9315
 Red. masses --      7.5202                 7.5200                 8.3640
 Frc consts  --      1.6647                 1.6647                 1.8695
 IR Inten    --      4.6403                 4.6449                16.3563

                     49                     50                     51
                      A                      A                      A
 Frequencies --    658.8353               663.7049               663.7160
 Red. masses --      8.9776                 9.3243                 9.3221
 Frc consts  --      2.2960                 2.4200                 2.4195
 IR Inten    --      3.6067                 4.3310                 4.3313

                     52                     53                     54
                      A                      A                      A
 Frequencies --    719.1244               719.1325               742.3765
 Red. masses --      6.9541                 6.9559                 1.3378
 Frc consts  --      2.1189                 2.1194                 0.4344
 IR Inten    --    146.6253               146.6931                14.8446

                     55                     56                     57
                      A                      A                      A
 Frequencies --    742.6165               742.6673               748.5739
 Red. masses --      1.3005                 1.3002                 6.5906
 Frc consts  --      0.4226                 0.4225                 2.1759
 IR Inten    --     26.4245                26.4387                 1.6241

                     58                     59                     60
                      A                      A                      A
 Frequencies --    868.9629               868.9781               869.6514
 Red. masses --      8.0202                 8.0199                 8.0012
 Frc consts  --      3.5681                 3.5681                 3.5653
 IR Inten    --     11.7989                11.8005                17.4981

                     61                     62                     63
                      A                      A                      A
 Frequencies --    926.9976               927.0300               927.1414
 Red. masses --      1.1911                 1.1911                 1.1915
 Frc consts  --      0.6031                 0.6031                 0.6034
 IR Inten    --      1.1779                 1.1827                 1.3970

                     64                     65                     66
                      A                      A                      A
 Frequencies --    967.0251               967.0675               970.6823
 Red. masses --      2.1368                 2.1371                 2.1153
 Frc consts  --      1.1773                 1.1776                 1.1743
 IR Inten    --     48.3901                48.3957                 0.7730

                     67                     68                     69
                      A                      A                      A
 Frequencies --   1073.2325              1073.2431              1077.1794
 Red. masses --      3.5116                 3.5115                 3.4262
 Frc consts  --      2.3831                 2.3831                 2.3423
 IR Inten    --     80.1333                80.1147                 1.1595

                     70                     71                     72
                      A                      A                      A
 Frequencies --   1135.8122              1136.0793              1136.0939
 Red. masses --      1.3185                 1.3186                 1.3186
 Frc consts  --      1.0022                 1.0027                 1.0027
 IR Inten    --      0.7663                 0.6394                 0.6495

                     73                     74                     75
                      A                      A                      A
 Frequencies --   1143.5670              1143.5934              1144.4083
 Red. masses --      2.0469                 2.0462                 2.0600
 Frc consts  --      1.5771                 1.5767                 1.5896
 IR Inten    --      4.8055                 4.7930                10.9317

                     76                     77                     78
                      A                      A                      A
 Frequencies --   1262.0851              1262.1069              1267.0905
 Red. masses --      2.1152                 2.1153                 2.0755
 Frc consts  --      1.9851                 1.9852                 1.9633
 IR Inten    --    264.2323               264.2808                 5.2517

                     79                     80                     81
                      A                      A                      A
 Frequencies --   1327.3905              1327.4087              1328.2500
 Red. masses --      2.7585                 2.7587                 2.7939
 Frc consts  --      2.8637                 2.8640                 2.9041
 IR Inten    --     52.3488                52.4240                 1.5972

                     82                     83                     84
                      A                      A                      A
 Frequencies --   1336.3191              1336.3370              1336.8339
 Red. masses --      4.2352                 4.2359                 4.4485
 Frc consts  --      4.4560                 4.4568                 4.6840
 IR Inten    --      9.8069                 9.7895                10.3932

                     85                     86                     87
                      A                      A                      A
 Frequencies --   1407.6803              1407.6919              1421.7879
 Red. masses --      7.4921                 7.4970                 8.2691
 Frc consts  --      8.7470                 8.7529                 9.8487
 IR Inten    --      3.3182                 3.2980                 1.7471

                     88                     89                     90
                      A                      A                      A
 Frequencies --   1448.7812              1448.7892              1450.0326
 Red. masses --      2.3585                 2.3590                 2.1262
 Frc consts  --      2.9167                 2.9174                 2.6340
 IR Inten    --     53.1567                53.1253                 1.2714

                     91                     92                     93
                      A                      A                      A
 Frequencies --   1552.7996              1552.8421              1555.6236
 Red. masses --      1.3184                 1.3184                 1.3025
 Frc consts  --      1.8730                 1.8731                 1.8571
 IR Inten    --    174.2300               174.3792                10.1338

                     94                     95                     96
                      A                      A                      A
 Frequencies --   1578.6127              1578.6223              1601.0082
 Red. masses --      3.7598                 3.7594                 4.5109
 Frc consts  --      5.5203                 5.5198                 6.8124
 IR Inten    --    340.8736               340.6708                10.6331

                     97                     98                     99
                      A                      A                      A
 Frequencies --   1658.0890              1658.0972              1659.4750
 Red. masses --      2.5316                 2.5311                 2.3199
 Frc consts  --      4.1006                 4.0999                 3.7640
 IR Inten    --      0.6649                 0.6697                 1.8197

                    100                    101                    102
                      A                      A                      A
 Frequencies --   1665.1064              1665.1510              1665.2701
 Red. masses --      1.0504                 1.0504                 1.0506
 Frc consts  --      1.7158                 1.7159                 1.7165
 IR Inten    --      1.8233                 1.8246                 2.5655

                    103                    104                    105
                      A                      A                      A
 Frequencies --   1691.3952              1691.4104              1693.1173
 Red. masses --      2.5464                 2.5469                 2.8789
 Frc consts  --      4.2921                 4.2931                 4.8623
 IR Inten    --     10.6003                10.6196                46.9168

                    106                    107                    108
                      A                      A                      A
 Frequencies --   1713.0795              1713.0830              1716.0410
 Red. masses --      2.3012                 2.3011                 2.2672
 Frc consts  --      3.9789                 3.9787                 3.9336
 IR Inten    --    137.1719               137.1335                93.3071

                    109                    110                    111
                      A                      A                      A
 Frequencies --   3261.7923              3261.8138              3262.2362
 Red. masses --      1.0369                 1.0369                 1.0369
 Frc consts  --      6.4996                 6.4997                 6.5016
 IR Inten    --     70.7459                70.6969                36.5657

                    112                    113                    114
                      A                      A                      A
 Frequencies --   3400.8670              3400.8772              3400.8951
 Red. masses --      1.1053                 1.1053                 1.1053
 Frc consts  --      7.5318                 7.5319                 7.5319
 IR Inten    --      6.5988                 6.4900                 6.5035

                    115                    116                    117
                      A                      A                      A
 Frequencies --   3425.0694              3425.1594              3425.3773
 Red. masses --      1.0889                 1.0889                 1.0890
 Frc consts  --      7.5265                 7.5268                 7.5283
 IR Inten    --     34.3779                35.5064                 2.1762

                    118                    119                    120
                      A                      A                      A
 Frequencies --   3456.5996              3456.6152              3456.6748
 Red. masses --      1.0994                 1.0994                 1.0994
 Frc consts  --      7.7395                 7.7397                 7.7399
 IR Inten    --      1.1907                 1.4963                 1.4713

                    121                    122                    123
                      A                      A                      A
 Frequencies --   3459.2019              3459.2436              3459.3206
 Red. masses --      1.1051                 1.1051                 1.1051
 Frc consts  --      7.7914                 7.7916                 7.7919
 IR Inten    --     12.5288                11.7954                 7.8410

 - Thermochemistry -
 -------------------
 Temperature   298.150 Kelvin.  Pressure   1.00000 Atm.
 Atom     1 has atomic number  6 and mass  12.00000

 Molecular mass:   431.00655 amu.
 Principal axes and moments of inertia in atomic units:
                           1         2         3
     Eigenvalues --  ******************************
           X            1.00000  -0.00300   0.00000
           Y            0.00300   1.00000   0.00000
           Z           -0.00000  -0.00000   1.00000
 This molecule is an asymmetric top.
 Rotational symmetry number  1.
 Warning -- assumption of classical behavior for rotation
           may cause significant error
 Rotational temperatures (Kelvin)      0.00818     0.00818     0.00500
 Rotational constants (GHZ):           0.17043     0.17041     0.10426
 Zero-point vibrational energy     842677.3 (Joules/Mol)
                                  201.40472 (Kcal/Mol)
 Warning -- explicit consideration of  48 degrees of freedom as
           vibrations may cause significant error
 Vibrational temperatures:     34.70    34.80    56.17    76.86    76.99
          (Kelvin)             81.15   183.65   184.04   184.49   210.86
                              212.91   212.99   225.07   239.26   239.34
                              290.77   290.82   293.12   333.18   333.37
                              361.18   385.86   448.25   467.59   467.62
                              480.77   480.79   525.13   525.21   529.56
                              582.97   583.03   597.81   698.48   698.50
                              699.59   709.14   717.16   717.21   747.65
                              747.67   772.28   772.32   777.12   842.81
                              881.90   881.92   886.19   947.92   954.92
                              954.94  1034.66  1034.67  1068.11  1068.46
                             1068.53  1077.03  1250.24  1250.27  1251.23
                             1333.74  1333.79  1333.95  1391.33  1391.39
                             1396.60  1544.14  1544.16  1549.82  1634.18
                             1634.56  1634.59  1645.34  1645.38  1646.55
                             1815.86  1815.89  1823.06  1909.82  1909.85
                             1911.06  1922.67  1922.69  1923.41  2025.34
                             2025.35  2045.64  2084.47  2084.48  2086.27
                             2234.13  2234.19  2238.20  2271.27  2271.29
                             2303.49  2385.62  2385.63  2387.61  2395.72
                             2395.78  2395.95  2433.54  2433.56  2436.02
                             2464.74  2464.74  2469.00  4692.99  4693.02
                             4693.63  4893.09  4893.10  4893.13  4927.91
                             4928.04  4928.35  4973.28  4973.30  4973.38
                             4977.02  4977.08  4977.19

 Zero-point correction=                           0.320959 (Hartree/Particle)
 Thermal correction to Energy=                    0.347135
 Thermal correction to Enthalpy=                  0.348080
 Thermal correction to Gibbs Free Energy=         0.264547
 Sum of electronic and zero-point Energies=          -2603.816988
 Sum of electronic and thermal Energies=             -2603.790812
 Sum of electronic and thermal Enthalpies=           -2603.789867
 Sum of electronic and thermal Free Energies=        -2603.873400

                     E (Thermal)             CV                S
                      KCal/Mol        Cal/Mol-Kelvin    Cal/Mol-Kelvin
 Total                  217.831             98.913            175.808
 Electronic               0.000              0.000              0.000
 Translational            0.889              2.981             44.073
 Rotational               0.889              2.981             35.916
 Vibrational            216.053             92.952             95.819
 Vibration     1          0.593              1.985              6.262
 Vibration     2          0.593              1.985              6.257
 Vibration     3          0.594              1.981              5.307
 Vibration     4          0.596              1.976              4.687
 Vibration     5          0.596              1.976              4.683
 Vibration     6          0.596              1.975              4.579
 Vibration     7          0.611              1.926              2.981
 Vibration     8          0.611              1.925              2.977
 Vibration     9          0.611              1.925              2.972
 Vibration    10          0.617              1.906              2.717
 Vibration    11          0.617              1.905              2.698
 Vibration    12          0.617              1.905              2.697
 Vibration    13          0.620              1.895              2.593
 Vibration    14          0.624              1.884              2.477
 Vibration    15          0.624              1.884              2.476
 Vibration    16          0.639              1.837              2.114
 Vibration    17          0.639              1.837              2.114
 Vibration    18          0.639              1.835              2.099
 Vibration    19          0.653              1.793              1.867
 Vibration    20          0.653              1.792              1.866
 Vibration    21          0.663              1.761              1.723
 Vibration    22          0.673              1.732              1.608
 Vibration    23          0.700              1.652              1.354
 Vibration    24          0.709              1.625              1.285
 Vibration    25          0.709              1.625              1.285
 Vibration    26          0.716              1.607              1.240
 Vibration    27          0.716              1.607              1.240
 Vibration    28          0.738              1.544              1.101
 Vibration    29          0.738              1.544              1.101
 Vibration    30          0.741              1.538              1.088
 Vibration    31          0.770              1.459              0.944
 Vibration    32          0.770              1.459              0.944
 Vibration    33          0.779              1.437              0.907
 Vibration    34          0.842              1.282              0.695
 Vibration    35          0.842              1.282              0.695
 Vibration    36          0.842              1.281              0.693
 Vibration    37          0.849              1.266              0.676
 Vibration    38          0.854              1.253              0.662
 Vibration    39          0.854              1.253              0.662
 Vibration    40          0.875              1.206              0.611
 Vibration    41          0.875              1.206              0.611
 Vibration    42          0.892              1.169              0.572
 Vibration    43          0.892              1.169              0.572
 Vibration    44          0.895              1.161              0.565
 Vibration    45          0.943              1.062              0.475
 Vibration    46          0.972              1.004              0.428
 Vibration    47          0.972              1.004              0.428
 Vibration    48          0.976              0.998              0.423

 1\1\GINC-I300\Freq\RB3LYP\STO-3G\C18H15Fe1O9(1-)\HHARB\26-Sep-2024\0\\
 #P Geom=AllCheck Guess=TCheck SCRF=Check GenChk RB3LYP/STO-3G Freq\\ma
 ltolate red low_spin spin\\-1,1\C,1.9135981808,-1.1951403309,-0.801344
 4257\C,0.4423115518,-1.2596126929,-0.4146368477\C,-0.3809098123,-0.153
 8759854,-0.2116967778\C,-1.8001691456,-0.3608773265,0.1645642073\O,-2.
 4587786915,0.7926348535,0.3146636429\C,-2.2774558101,-1.7101354376,0.3
 126326059\C,-1.3921742206,-2.7447432473,0.0961694757\O,-0.0376396375,-
 2.6151203002,-0.2650746264\O,-0.0492031794,1.1501689164,-0.3139795284\

 Normal termination of Gaussian 16 at Thu Sep 26 11:01:23 2024.
