 Gaussian 16, Revision C.02,
 Gaussian 16:  ES64L-G16RevC.02  7-Dec-2021

 ----------------------------------------------------------------------
 #p B3LYP empiricaldispersion=gd3 opt=(cartesian,calcall,maxcycles=500)
  freq scf=(maxcycles=500,xqc,maxconventional=50)
 ----------------------------------------------------------------------

 ----------------------------
 salicylate red low_spin spin
 ----------------------------
 Symbolic Z-matrix:
 Charge = -4 Multiplicity = 1

 SCF Done:  E(RB3LYP) =  -2714.26198851     A.U. after   51 cycles
 SCF Done:  E(RB3LYP) =  -2714.26198855     a.u. after    2 cycles
 SCF Done:  E(RB3LYP) =  -2714.30498392     A.U. after   35 cycles
 SCF Done:  E(RB3LYP) =  -2714.35940680     A.U. after   39 cycles
 SCF Done:  E(RB3LYP) =  -2714.38222784     A.U. after   35 cycles
 SCF Done:  E(RB3LYP) =  -2714.40080619     A.U. after   36 cycles
 SCF Done:  E(RB3LYP) =  -2714.41071719     A.U. after   35 cycles
 SCF Done:  E(RB3LYP) =  -2714.41723583     A.U. after   33 cycles
 SCF Done:  E(RB3LYP) =  -2714.42293133     A.U. after   34 cycles
 SCF Done:  E(RB3LYP) =  -2714.42717047     A.U. after   34 cycles
 SCF Done:  E(RB3LYP) =  -2714.43569895     A.U. after   34 cycles
 SCF Done:  E(RB3LYP) =  -2714.43700039     A.U. after   34 cycles
 SCF Done:  E(RB3LYP) =  -2714.43798870     A.U. after   34 cycles
 SCF Done:  E(RB3LYP) =  -2714.43846493     A.U. after   29 cycles
 SCF Done:  E(RB3LYP) =  -2714.43869530     A.U. after   33 cycles
 SCF Done:  E(RB3LYP) =  -2714.43879560     A.U. after   33 cycles
 SCF Done:  E(RB3LYP) =  -2714.43881954     A.U. after   27 cycles
 SCF Done:  E(RB3LYP) =  -2714.43881972     A.U. after   21 cycles
 SCF Done:  E(RB3LYP) =  -2714.43881976     A.U. after   21 cycles
 Optimization completed on the basis of negligible forces.
    -- Stationary point found.

 1\1\GINC-I375\Freq\RB3LYP\STO-3G\C21H12Fe1O9(4-)\HHARB\26-Sep-2024\0\\
 #p B3LYP empiricaldispersion=gd3 opt=(cartesian,calcall,maxcycles=500)
  freq scf=(maxcycles=500,xqc,maxconventional=50)\\salicylate red low_s
 pin spin\\-4,1\C,-1.2082907033,-2.1676993802,-1.2574672279\C,-1.991609
 8656,-1.3952574166,-0.3720743001\C,-1.4153004783,-0.3816618464,0.41173
 53135\C,0.0219447644,-0.0558903284,0.3391108015\C,0.8093932403,-0.8718
 862282,-0.5949160655\C,0.1812212426,-1.8896821349,-1.3456641204\C,2.35
 48411991,-0.6822679558,-0.7292760262\O,2.9276449235,0.3076904543,-0.02

 Normal termination of Gaussian 16 at Thu Sep 26 11:13:00 2024.

 ------------------------------------------------------------------
 #P Geom=AllCheck Guess=TCheck SCRF=Check GenChk RB3LYP/STO-3G Freq
 ------------------------------------------------------------------

 Structure from the checkpoint file:  "salicylate_red_low_spin.chk"
 ----------------------------
 salicylate red low_spin spin
 ----------------------------
 Charge = -4 Multiplicity = 1

                         Standard orientation:
 ---------------------------------------------------------------------
 Center     Atomic      Atomic             Coordinates (Angstroms)
 Number     Number       Type             X           Y           Z
 ---------------------------------------------------------------------
      1          6           0       -1.664632    5.173832   -0.750394
      2          6           0       -0.679928    4.875181   -1.717525
      3          6           0       -0.001670    3.644844   -1.707356
      4          6           0       -0.291974    2.597712   -0.709200
      5          6           0       -1.324932    2.934870    0.279563
      6          6           0       -1.962695    4.193920    0.232839
      7          6           0       -1.691073    1.948043    1.434782
      8          8           0       -1.093369    0.746817    1.445284
      9          8           0       -2.520340    2.324356    2.344522
     10          8           0        0.378596    1.462977   -0.753519
     11          1           0       -2.188047    6.139583   -0.764159
     12          1           0       -0.437840    5.620563   -2.493195
     13          1           0        0.766953    3.431035   -2.460348
     14          1           0       -2.718866    4.390496    1.009300
     15         26           0        0.107396   -0.144637    0.393955
     16          6           0        5.463226   -1.183061   -0.890263
     17          6           0        4.684652   -1.757730   -1.935479
     18          6           0        3.260746   -1.653901   -1.889003
     19          6           0        2.568897   -0.993636   -0.820408
     20          6           0        3.396607   -0.403570    0.270897
     21          6           0        4.824368   -0.526373    0.172551
     22          6           0        2.755715    0.326894    1.410855
     23          8           0        1.365470    0.414416    1.398514
     24          8           0        3.428515    0.877104    2.369987
     25          8           0        1.229099   -0.921548   -0.833836
     26          1           0        6.562154   -1.253059   -0.919589
     27          1           0        5.173702   -2.277603   -2.771879
     28          1           0        2.656727   -2.087776   -2.697675
     29          1           0        5.419948   -0.071628    0.979935
     30          6           0       -4.139178   -3.616166   -0.887309
     31          6           0       -4.207129   -2.560128   -1.833296
     32          6           0       -3.250847   -1.500375   -1.782003
     33          6           0       -2.212700   -1.444254   -0.786200
     34          6           0       -2.155752   -2.559948    0.198706
     35          6           0       -3.134214   -3.607568    0.096302
     36          6           0       -1.067165   -2.620140    1.221359
     37          8           0       -0.086562   -1.627076    1.131810
     38          8           0       -0.948949   -3.561659    2.099175
     39          8           0       -1.354081   -0.420165   -0.773089
     40          1           0       -4.871839   -4.437830   -0.924444
     41          1           0       -4.995459   -2.553256   -2.600521
     42          1           0       -3.299906   -0.685136   -2.515894
     43          1           0       -3.068799   -4.427267    0.828366
 ---------------------------------------------------------------------

 SCF Done:  E(RB3LYP) =  -2714.43881976     A.U. after    3 cycles

 The electronic state is 1-A.
 Alpha  occ. eigenvalues -- -253.19417 -29.15722 -25.60308 -25.59766 -25.58585
 Alpha  occ. eigenvalues --  -18.35931 -18.33152 -18.33110 -18.32354 -18.31083
 Alpha  occ. eigenvalues --  -18.29914 -18.27407 -18.24153 -18.23428  -9.57027
 Alpha  occ. eigenvalues --   -9.56779  -9.54467  -9.53698  -9.53487  -9.52941
 Alpha  occ. eigenvalues --   -9.52536  -9.52407  -9.52247  -9.50431  -9.49962
 Alpha  occ. eigenvalues --   -9.49930  -9.49579  -9.49020  -9.48945  -9.48743
 Alpha  occ. eigenvalues --   -9.48646  -9.47669  -9.47215  -9.45813  -9.45420
 Alpha  occ. eigenvalues --   -2.98233  -1.79041  -1.77890  -1.75501  -0.46089
 Alpha  occ. eigenvalues --   -0.44497  -0.43639  -0.42714  -0.41697  -0.41452
 Alpha  occ. eigenvalues --   -0.37153  -0.35216  -0.34311  -0.32277  -0.28867
 Alpha  occ. eigenvalues --   -0.28826  -0.23368  -0.20479  -0.20040  -0.19984
 Alpha  occ. eigenvalues --   -0.18003  -0.17754  -0.10236  -0.08293  -0.08196
 Alpha  occ. eigenvalues --   -0.08138  -0.05307  -0.04983  -0.02312  -0.00397
 Alpha  occ. eigenvalues --    0.00025   0.01907   0.03961   0.04180   0.04736
 Alpha  occ. eigenvalues --    0.06611   0.07549   0.08438   0.08977   0.09668
 Alpha  occ. eigenvalues --    0.09813   0.10801   0.11242   0.11489   0.12377
 Alpha  occ. eigenvalues --    0.13025   0.13880   0.14460   0.15242   0.16354
 Alpha  occ. eigenvalues --    0.16821   0.17132   0.17262   0.17992   0.18443
 Alpha  occ. eigenvalues --    0.19229   0.19790   0.21357   0.21806   0.22326
 Alpha  occ. eigenvalues --    0.22695   0.23020   0.24578   0.24797   0.27523
 Alpha  occ. eigenvalues --    0.30218   0.30531   0.31006   0.31561   0.32367
 Alpha  occ. eigenvalues --    0.34325   0.34569   0.34943   0.35780   0.36422
 Alpha  occ. eigenvalues --    0.37116   0.37468   0.38148   0.39091   0.39516
 Alpha  occ. eigenvalues --    0.40270   0.40752   0.46963   0.47058   0.52540
 Alpha virt. eigenvalues --    0.54056   0.55274   0.57028   0.58353   0.60213
 Alpha virt. eigenvalues --    0.60270   0.64463   0.65998   0.66839   0.67440
 Alpha virt. eigenvalues --    0.69011   0.73428   0.76143   0.76329   0.77114

 Mulliken charges:
               1
     1  C   -0.168333
     2  C   -0.136629
     3  C   -0.160272
     4  C    0.089546
     5  C   -0.087821
     6  C   -0.132531
     7  C    0.153475
     8  O   -0.337603
     9  O   -0.373845
    10  O   -0.278055
    11  H   -0.021145
    12  H   -0.014374
    13  H    0.010766
    14  H    0.016900
    15  Fe   0.918743
    16  C   -0.166116
    17  C   -0.173334
    18  C   -0.164970
    19  C    0.068870
    20  C   -0.115122
    21  C   -0.141999
    22  C    0.107758
    23  O   -0.378842
    24  O   -0.395467
    25  O   -0.324736
    26  H   -0.032033
    27  H   -0.032934
    28  H   -0.000750
    29  H    0.001015
    30  C   -0.165554
    31  C   -0.168967
    32  C   -0.169321
    33  C    0.071856
    34  C   -0.112441
    35  C   -0.145182
    36  C    0.110702
    37  O   -0.383504
    38  O   -0.389428
    39  O   -0.314148
    40  H   -0.031590
    41  H   -0.031558
    42  H   -0.000832
    43  H   -0.000194
 Sum of Mulliken charges =  -4.00000

 Dipole moment (field-independent basis, Debye):
    X=             -0.9230    Y=              3.0517    Z=             -2.4354  Tot=              4.0120
 Quadrupole moment (field-independent basis, Debye-Ang):
   XX=           -348.7255   YY=           -313.8225   ZZ=           -231.0707
   XY=             -3.7753   XZ=             -0.9112   YZ=             -2.4874

  Exact polarizability:     614.448     -10.921     593.377       7.103     -11.732     182.275
 Approx polarizability:    4076.002     491.890    2522.609      68.059     -96.094     458.824

                      1                      2                      3
                      A                      A                      A
 Frequencies --     21.2665                27.2401                35.0684
 Red. masses --      6.6116                 6.5637                 7.0567
 Frc consts  --      0.0018                 0.0029                 0.0051
 IR Inten    --      0.2567                 0.4390                 0.2788

                      4                      5                      6
                      A                      A                      A
 Frequencies --     43.1560                44.6607                51.8974
 Red. masses --      7.8970                 7.8123                 7.4452
 Frc consts  --      0.0087                 0.0092                 0.0118
 IR Inten    --      0.2752                 0.0631                 1.7508

                      7                      8                      9
                      A                      A                      A
 Frequencies --    103.7505               111.1464               116.5546
 Red. masses --      5.8407                 5.5971                 5.1911
 Frc consts  --      0.0370                 0.0407                 0.0415
 IR Inten    --      2.4056                 4.2198                 1.0661

                     10                     11                     12
                      A                      A                      A
 Frequencies --    123.9369               153.6772               172.8082
 Red. masses --      7.0789                 8.4508                 8.4171
 Frc consts  --      0.0641                 0.1176                 0.1481
 IR Inten    --     10.4470                 6.9091                 3.0215

                     13                     14                     15
                      A                      A                      A
 Frequencies --    188.6511               192.3400               195.0639
 Red. masses --      7.4866                 7.6896                 7.6167
 Frc consts  --      0.1570                 0.1676                 0.1708
 IR Inten    --     12.7728                 4.0216                20.8957

                     16                     17                     18
                      A                      A                      A
 Frequencies --    221.4740               227.0017               235.1358
 Red. masses --      7.6245                 8.8103                10.7420
 Frc consts  --      0.2203                 0.2675                 0.3499
 IR Inten    --      8.6480                32.6051                29.5311

                     19                     20                     21
                      A                      A                      A
 Frequencies --    248.3920               262.2412               281.1877
 Red. masses --      7.2983                 9.7503                12.2599
 Frc consts  --      0.2653                 0.3951                 0.5711
 IR Inten    --      5.9324                16.5541                23.4122

                     22                     23                     24
                      A                      A                      A
 Frequencies --    294.1519               304.7894               317.6158
 Red. masses --     11.9109                12.5928                12.7473
 Frc consts  --      0.6072                 0.6892                 0.7577
 IR Inten    --     14.7170                36.3747                13.5694

                     25                     26                     27
                      A                      A                      A
 Frequencies --    323.7877               351.6565               362.5135
 Red. masses --     11.5694                15.6483                11.2283
 Frc consts  --      0.7146                 1.1401                 0.8694
 IR Inten    --      5.6416               103.4015                18.9569

                     28                     29                     30
                      A                      A                      A
 Frequencies --    382.7897               393.1072               393.7614
 Red. masses --      7.2060                 5.1626                 4.3682
 Frc consts  --      0.6221                 0.4700                 0.3990
 IR Inten    --     28.3767                 4.8510                 0.4446

                     31                     32                     33
                      A                      A                      A
 Frequencies --    413.4389               422.4929               432.5470
 Red. masses --     10.5927                 4.9187                12.0415
 Frc consts  --      1.0668                 0.5173                 1.3274
 IR Inten    --     26.3954                 7.4942                 8.7794

                     34                     35                     36
                      A                      A                      A
 Frequencies --    455.3401               461.5182               478.0791
 Red. masses --     12.6792                14.2174                14.4753
 Frc consts  --      1.5489                 1.7842                 1.9493
 IR Inten    --      4.9405                 7.5412                 2.4138

                     37                     38                     39
                      A                      A                      A
 Frequencies --    527.7167               539.7664               541.7449
 Red. masses --      3.5425                 5.3177                 5.1094
 Frc consts  --      0.5812                 0.9128                 0.8835
 IR Inten    --     14.9680                 0.3812                 0.1075

                     40                     41                     42
                      A                      A                      A
 Frequencies --    575.1161               581.7727               590.1282
 Red. masses --      6.9543                 8.1824                 8.3340
 Frc consts  --      1.3552                 1.6317                 1.7100
 IR Inten    --     46.6579                 8.4209                23.2537

                     43                     44                     45
                      A                      A                      A
 Frequencies --    592.4407               595.5332               599.0008
 Red. masses --      7.4932                 7.4443                 4.1325
 Frc consts  --      1.5495                 1.5556                 0.8736
 IR Inten    --     31.2281                 9.7229                 5.1339

                     46                     47                     48
                      A                      A                      A
 Frequencies --    611.5515               614.9019               639.0575
 Red. masses --      6.8787                 7.5357                 1.6627
 Frc consts  --      1.5157                 1.6787                 0.4001
 IR Inten    --      2.0674                 1.0996                 6.4860

                     49                     50                     51
                      A                      A                      A
 Frequencies --    651.1439               653.4120               660.9394
 Red. masses --      6.8832                 1.5561                 7.2807
 Frc consts  --      1.7195                 0.3914                 1.8739
 IR Inten    --      0.2901                 4.8185                 6.5067

                     52                     53                     54
                      A                      A                      A
 Frequencies --    666.2483               670.7127               698.2848
 Red. masses --      6.9588                 6.2029                 4.8993
 Frc consts  --      1.8199                 1.6441                 1.4075
 IR Inten    --      6.4652                 4.2123                 5.5057

                     55                     56                     57
                      A                      A                      A
 Frequencies --    702.4087               719.0781               740.2631
 Red. masses --      4.2961                 1.5431                 2.2207
 Frc consts  --      1.2488                 0.4701                 0.7170
 IR Inten    --      4.7508                 8.5690                11.0134

                     58                     59                     60
                      A                      A                      A
 Frequencies --    762.8261               765.4903               770.6978
 Red. masses --      1.3761                 1.3451                 5.3796
 Frc consts  --      0.4718                 0.4644                 1.8827
 IR Inten    --     12.7585                 0.2952               469.4524

                     61                     62                     63
                      A                      A                      A
 Frequencies --    776.9303               798.8914               808.9561
 Red. masses --      2.1118                 8.7489                 1.2695
 Frc consts  --      0.7511                 3.2899                 0.4895
 IR Inten    --     86.9039               129.9145                 4.1245

                     64                     65                     66
                      A                      A                      A
 Frequencies --    826.8560               835.0119               882.5268
 Red. masses --      1.2527                 8.7881                 6.2115
 Frc consts  --      0.5046                 3.6102                 2.8504
 IR Inten    --      3.7281               285.9242               413.0254

                     67                     68                     69
                      A                      A                      A
 Frequencies --    897.7640               902.4656               905.8885
 Red. masses --      6.5168                 1.3292                 5.9599
 Frc consts  --      3.0946                 0.6378                 2.8816
 IR Inten    --    116.1637                 0.5952                17.1732

                     70                     71                     72
                      A                      A                      A
 Frequencies --    919.1802               929.4821               956.3061
 Red. masses --      1.1239                 1.1388                 1.1345
 Frc consts  --      0.5595                 0.5797                 0.6113
 IR Inten    --      0.5269                 0.7354                 2.9676

                     73                     74                     75
                      A                      A                      A
 Frequencies --   1045.0320              1062.3565              1071.9844
 Red. masses --      9.9037                 2.5867                 2.2592
 Frc consts  --      6.3725                 1.7200                 1.5296
 IR Inten    --    240.5552               122.7063               351.3593

                     76                     77                     78
                      A                      A                      A
 Frequencies --   1085.3476              1091.6473              1108.1311
 Red. masses --      3.0169                 3.1474                 3.6087
 Frc consts  --      2.0939                 2.2098                 2.6108
 IR Inten    --    636.6388               230.4349               100.1552

                     79                     80                     81
                      A                      A                      A
 Frequencies --   1136.2819              1148.2583              1153.6296
 Red. masses --      2.8808                 2.3222                 2.0571
 Frc consts  --      2.1915                 1.8040                 1.6130
 IR Inten    --    485.8581               196.1915                11.7078

                     82                     83                     84
                      A                      A                      A
 Frequencies --   1210.4179              1217.7225              1221.5830
 Red. masses --      2.4982                 1.5482                 1.5644
 Frc consts  --      2.1565                 1.3526                 1.3754
 IR Inten    --    387.2368                75.9926                32.9958

                     85                     86                     87
                      A                      A                      A
 Frequencies --   1241.0166              1246.2722              1259.5760
 Red. masses --      1.8610                 2.3266                 1.8296
 Frc consts  --      1.6887                 2.1291                 1.7102
 IR Inten    --    524.8156               509.0512                28.5373

                     88                     89                     90
                      A                      A                      A
 Frequencies --   1264.9780              1283.5624              1296.4615
 Red. masses --      3.1894                 2.0144                 2.3728
 Frc consts  --      3.0069                 1.9553                 2.3498
 IR Inten    --    106.9094               543.3374               131.6169

                     91                     92                     93
                      A                      A                      A
 Frequencies --   1347.3584              1351.2678              1363.7817
 Red. masses --      4.0469                 3.5509                 3.2413
 Frc consts  --      4.3285                 3.8201                 3.5518
 IR Inten    --     35.1791               107.9484               116.9258

                     94                     95                     96
                      A                      A                      A
 Frequencies --   1418.3093              1436.2005              1457.6542
 Red. masses --      5.0875                 3.8823                 2.2533
 Frc consts  --      6.0297                 4.7181                 2.8208
 IR Inten    --     96.9719                95.7357               382.2806

                     97                     98                     99
                      A                      A                      A
 Frequencies --   1535.6606              1544.1130              1551.4782
 Red. masses --      3.2144                 2.1903                 2.6992
 Frc consts  --      4.4662                 3.0769                 3.8281
 IR Inten    --    512.1088               533.7010                56.5069

                    100                    101                    102
                      A                      A                      A
 Frequencies --   1554.6936              1560.7449              1585.2325
 Red. masses --      4.3223                 5.6291                 3.3645
 Frc consts  --      6.1554                 8.0789                 4.9815
 IR Inten    --    161.3020               419.5297                59.5240

                    103                    104                    105
                      A                      A                      A
 Frequencies --   1595.4788              1606.0360              1613.1613
 Red. masses --      2.1765                 2.3049                 2.4854
 Frc consts  --      3.2643                 3.5029                 3.8106
 IR Inten    --    209.4516                33.0242                31.8901

                    106                    107                    108
                      A                      A                      A
 Frequencies --   1642.6951              1652.1216              1658.6330
 Red. masses --      3.6627                 5.2846                 4.2953
 Frc consts  --      5.8233                 8.4986                 6.9622
 IR Inten    --    402.4819               368.6260               699.0392

                    109                    110                    111
                      A                      A                      A
 Frequencies --   1660.7725              1682.1743              1723.4533
 Red. masses --      8.0277                 4.7753                12.3508
 Frc consts  --     13.0455                 7.9615                21.6144
 IR Inten    --    709.4127                50.2410               151.8941

                    112                    113                    114
                      A                      A                      A
 Frequencies --   3317.5923              3318.4906              3329.7205
 Red. masses --      1.0826                 1.0828                 1.0837
 Frc consts  --      7.0204                 7.0253                 7.0792
 IR Inten    --    149.3271                88.8493                22.8715

                    115                    116                    117
                      A                      A                      A
 Frequencies --   3342.2664              3342.6287              3355.8505
 Red. masses --      1.0882                 1.0874                 1.0875
 Frc consts  --      7.1618                 7.1586                 7.2161
 IR Inten    --     38.2360                14.3615               207.0170

                    118                    119                    120
                      A                      A                      A
 Frequencies --   3363.0277              3365.7300              3378.6742
 Red. masses --      1.0973                 1.0972                 1.0986
 Frc consts  --      7.3119                 7.3231                 7.3893
 IR Inten    --     90.2782                74.7946                88.5647

                    121                    122                    123
                      A                      A                      A
 Frequencies --   3384.6831              3388.5696              3406.4056
 Red. masses --      1.0959                 1.0951                 1.0948
 Frc consts  --      7.3969                 7.4087                 7.4851
 IR Inten    --     24.9648                13.7158                36.1131

 - Thermochemistry -
 -------------------
 Temperature   298.150 Kelvin.  Pressure   1.00000 Atm.
 Atom     1 has atomic number  6 and mass  12.00000

 Molecular mass:   463.98307 amu.
 Principal axes and moments of inertia in atomic units:
                           1         2         3
     Eigenvalues --  ******************************
           X            1.00000  -0.00222  -0.00045
           Y            0.00222   1.00000  -0.00043
           Z            0.00045   0.00043   1.00000
 This molecule is an asymmetric top.
 Rotational symmetry number  1.
 Warning -- assumption of classical behavior for rotation
           may cause significant error
 Rotational temperatures (Kelvin)      0.00745     0.00666     0.00453
 Rotational constants (GHZ):           0.15532     0.13887     0.09443
 Zero-point vibrational energy     769998.2 (Joules/Mol)
                                  184.03400 (Kcal/Mol)
 Warning -- explicit consideration of  47 degrees of freedom as
           vibrations may cause significant error
 Vibrational temperatures:     30.60    39.19    50.46    62.09    64.26
          (Kelvin)             74.67   149.27   159.91   167.70   178.32
                              221.11   248.63   271.43   276.73   280.65
                              318.65   326.60   338.31   357.38   377.31
                              404.57   423.22   438.52   456.98   465.86
                              505.96   521.58   550.75   565.59   566.53
                              594.85   607.87   622.34   655.13   664.02
                              687.85   759.27   776.60   779.45   827.46
                              837.04   849.06   852.39   856.84   861.83
                              879.89   884.71   919.46   936.85   940.11
                              950.94   958.58   965.01  1004.68  1010.61
                             1034.59  1065.07  1097.54  1101.37  1108.86
                             1117.83  1149.43  1163.91  1189.66  1201.40
                             1269.76  1291.68  1298.45  1303.37  1322.50
                             1337.32  1375.91  1503.57  1528.49  1542.35
                             1561.57  1570.64  1594.35  1634.86  1652.09
                             1659.82  1741.52  1752.03  1757.59  1785.55
                             1793.11  1812.25  1820.02  1846.76  1865.32
                             1938.55  1944.17  1962.18  2040.63  2066.37
                             2097.24  2209.47  2221.63  2232.23  2236.86
                             2245.56  2280.80  2295.54  2310.73  2320.98
                             2363.47  2377.03  2386.40  2389.48  2420.27
                             2479.66  4773.28  4774.57  4790.73  4808.78
                             4809.30  4828.32  4838.65  4842.53  4861.16
                             4869.80  4875.40  4901.06

 Zero-point correction=                           0.293277 (Hartree/Particle)
 Thermal correction to Energy=                    0.319515
 Thermal correction to Enthalpy=                  0.320459
 Thermal correction to Gibbs Free Energy=         0.236492
 Sum of electronic and zero-point Energies=          -2714.145543
 Sum of electronic and thermal Energies=             -2714.119304
 Sum of electronic and thermal Enthalpies=           -2714.118360
 Sum of electronic and thermal Free Energies=        -2714.202327

                     E (Thermal)             CV                S
                      KCal/Mol        Cal/Mol-Kelvin    Cal/Mol-Kelvin
 Total                  200.499            102.752            176.723
 Electronic               0.000              0.000              0.000
 Translational            0.889              2.981             44.293
 Rotational               0.889              2.981             36.310
 Vibrational            198.721             96.790             96.121
 Vibration     1          0.593              1.985              6.512
 Vibration     2          0.593              1.984              6.021
 Vibration     3          0.594              1.982              5.520
 Vibration     4          0.595              1.980              5.109
 Vibration     5          0.595              1.980              5.041
 Vibration     6          0.596              1.977              4.744
 Vibration     7          0.605              1.946              3.383
 Vibration     8          0.607              1.940              3.249
 Vibration     9          0.608              1.936              3.157
 Vibration    10          0.610              1.929              3.038
 Vibration    11          0.619              1.899              2.626
 Vibration    12          0.626              1.876              2.405
 Vibration    13          0.633              1.855              2.241
 Vibration    14          0.634              1.850              2.205
 Vibration    15          0.636              1.847              2.179
 Vibration    16          0.648              1.808              1.947
 Vibration    17          0.651              1.800              1.903
 Vibration    18          0.655              1.787              1.839
 Vibration    19          0.662              1.765              1.742
 Vibration    20          0.670              1.742              1.647
 Vibration    21          0.681              1.708              1.526
 Vibration    22          0.689              1.685              1.450
 Vibration    23          0.696              1.665              1.390
 Vibration    24          0.704              1.640              1.322
 Vibration    25          0.708              1.628              1.291
 Vibration    26          0.728              1.572              1.159
 Vibration    27          0.736              1.549              1.111
 Vibration    28          0.752              1.507              1.028
 Vibration    29          0.760              1.485              0.988
 Vibration    30          0.761              1.484              0.986
 Vibration    31          0.777              1.441              0.915
 Vibration    32          0.785              1.421              0.884
 Vibration    33          0.793              1.399              0.850
 Vibration    34          0.814              1.349              0.780
 Vibration    35          0.819              1.335              0.762
 Vibration    36          0.835              1.299              0.715
 Vibration    37          0.883              1.189              0.592
 Vibration    38          0.895              1.162              0.566
 Vibration    39          0.897              1.158              0.562
 Vibration    40          0.931              1.085              0.494
 Vibration    41          0.939              1.071              0.482
 Vibration    42          0.947              1.053              0.467
 Vibration    43          0.950              1.048              0.463
 Vibration    44          0.953              1.041              0.457
 Vibration    45          0.957              1.034              0.451
 Vibration    46          0.971              1.007              0.430
 Vibration    47          0.974              1.000              0.425

 Optimization completed on the basis of negligible forces.
    -- Stationary point found.

 1\1\GINC-I375\Freq\RB3LYP\STO-3G\C21H12Fe1O9(4-)\HHARB\26-Sep-2024\0\\
 #P Geom=AllCheck Guess=TCheck SCRF=Check GenChk RB3LYP/STO-3G Freq\\sa
 licylate red low_spin spin\\-4,1\C,-1.2082907033,-2.1676993802,-1.2574
 672279\C,-1.9916098656,-1.3952574166,-0.3720743001\C,-1.4153004783,-0.
 3816618464,0.4117353135\C,0.0219447644,-0.0558903284,0.3391108015\C,0.
 8093932403,-0.8718862282,-0.5949160655\C,0.1812212426,-1.8896821349,-1
 .3456641204\C,2.3548411991,-0.6822679558,-0.7292760262\O,2.9276449235,
 0.3076904543,-0.0277187224\O,3.0252561124,-1.4894235085,-1.4749084041\

 Normal termination of Gaussian 16 at Thu Sep 26 11:13:18 2024.
