 Gaussian 16, Revision C.02,
 Gaussian 16:  ES64L-G16RevC.02  7-Dec-2021

 ----------------------------------------------------------------------
 #p B3LYP empiricaldispersion=gd3 opt=(cartesian,calcall,maxcycles=500)
  freq scf=(maxcycles=500,xqc,maxconventional=50)
 ----------------------------------------------------------------------

 ---------------------------
 salicylate ox low_spin spin
 ---------------------------
 Symbolic Z-matrix:
 Charge = -3 Multiplicity = 2

 SCF Done:  E(UB3LYP) =  -2714.82062054     A.U. after   51 cycles
 SCF Done:  E(UB3LYP) =  -2714.82167154     a.u. after    8 cycles
 SCF Done:  E(UB3LYP) =  -2714.86822475     A.U. after   51 cycles
 SCF Done:  E(UB3LYP) =  -2714.86825755     a.u. after    4 cycles
 SCF Done:  E(UB3LYP) =  -2714.91572634     A.U. after   51 cycles
 SCF Done:  E(UB3LYP) =  -2714.91572634     a.u. after    1 cycles
 SCF Done:  E(UB3LYP) =  -2714.92035772     A.U. after   47 cycles
 SCF Done:  E(UB3LYP) =  -2714.95113418     A.U. after   51 cycles
 SCF Done:  E(UB3LYP) =  -2714.95113418     a.u. after    2 cycles
 SCF Done:  E(UB3LYP) =  -2714.95502020     A.U. after   51 cycles
 SCF Done:  E(UB3LYP) =  -2714.98038234     A.U. after   49 cycles
 SCF Done:  E(UB3LYP) =  -2714.98044106     A.U. after   51 cycles
 SCF Done:  E(UB3LYP) =  -2714.98044106     a.u. after    1 cycles
 SCF Done:  E(UB3LYP) =  -2714.98046810     A.U. after   45 cycles
 SCF Done:  E(UB3LYP) =  -2714.98048244     A.U. after   47 cycles
 SCF Done:  E(UB3LYP) =  -2714.98048618     A.U. after   48 cycles
 SCF Done:  E(UB3LYP) =  -2714.98048863     A.U. after   33 cycles
 SCF Done:  E(UB3LYP) =  -2714.98048916     A.U. after   32 cycles
 SCF Done:  E(UB3LYP) =  -2714.98048926     A.U. after   32 cycles
 Optimization completed on the basis of negligible forces.
    -- Stationary point found.
 Normal termination of Gaussian 16 at Thu Sep 26 11:20:57 2024.

 ------------------------------------------------------------------
 #P Geom=AllCheck Guess=TCheck SCRF=Check GenChk UB3LYP/STO-3G Freq
 ------------------------------------------------------------------

 Structure from the checkpoint file:  "salicylate_ox_low_spin.chk"
 ---------------------------
 salicylate ox low_spin spin
 ---------------------------
 Charge = -3 Multiplicity = 2

                         Standard orientation:
 ---------------------------------------------------------------------
 Center     Atomic      Atomic             Coordinates (Angstroms)
 Number     Number       Type             X           Y           Z
 ---------------------------------------------------------------------
      1          6           0       -0.052148    5.379710   -0.842625
      2          6           0        0.820487    4.762531   -1.772004
      3          6           0        1.076033    3.390223   -1.716282
      4          6           0        0.465370    2.530850   -0.709655
      5          6           0       -0.434310    3.189750    0.238677
      6          6           0       -0.658469    4.572238    0.142110
      7          6           0       -1.166546    2.387413    1.363939
      8          8           0       -0.972412    1.055210    1.411295
      9          8           0       -1.928656    3.009268    2.182153
     10          8           0        0.751536    1.235063   -0.717307
     11          1           0       -0.249097    6.457435   -0.891159
     12          1           0        1.305874    5.371706   -2.549284
     13          1           0        1.754810    2.919288   -2.438450
     14          1           0       -1.345883    5.007035    0.885558
     15         26           0        0.090906   -0.088294    0.414201
     16          6           0        4.858985   -2.536690   -0.916477
     17          6           0        3.909322   -2.963373   -1.879028
     18          6           0        2.549909   -2.507662   -1.773301
     19          6           0        2.133870   -1.643598   -0.731743
     20          6           0        3.122451   -1.202823    0.275323
     21          6           0        4.483119   -1.684884    0.128340
     22          6           0        2.741443   -0.312115    1.375136
     23          8           0        1.362152    0.092662    1.412624
     24          8           0        3.504301    0.128143    2.312933
     25          8           0        0.830181   -1.253505   -0.668099
     26          1           0        5.902357   -2.880189   -0.991598
     27          1           0        4.204166   -3.631483   -2.698176
     28          1           0        1.802434   -2.826266   -2.510453
     29          1           0        5.219839   -1.357065    0.874785
     30          6           0       -4.836126   -2.563618   -0.931942
     31          6           0       -4.625746   -1.550288   -1.896805
     32          6           0       -3.491558   -0.736899   -1.853258
     33          6           0       -2.469413   -0.886706   -0.818621
     34          6           0       -2.711746   -1.942381    0.168041
     35          6           0       -3.866960   -2.732479    0.081133
     36          6           0       -1.704415   -2.208483    1.332193
     37          8           0       -0.591352   -1.455929    1.374910
     38          8           0       -1.960647   -3.119647    2.193010
     39          8           0       -1.419252   -0.085195   -0.827861
     40          1           0       -5.729448   -3.198206   -0.972528
     41          1           0       -5.368135   -1.399335   -2.695434
     42          1           0       -3.340018    0.046619   -2.606389
     43          1           0       -3.988570   -3.506739    0.855727
 ---------------------------------------------------------------------

 SCF Done:  E(UB3LYP) =  -2714.98048926     A.U. after    1 cycles

 The electronic state is 2-A.
 Alpha  occ. eigenvalues -- -253.40000 -29.37354 -25.82640 -25.80366 -25.80163
 Alpha  occ. eigenvalues --  -18.49702 -18.49236 -18.45828 -18.45566 -18.45175
 Alpha  occ. eigenvalues --  -18.43477 -18.41917 -18.41674 -18.37538  -9.70546
 Alpha  occ. eigenvalues --   -9.70395  -9.70199  -9.70120  -9.67333  -9.67312
 Alpha  occ. eigenvalues --   -9.66171  -9.65995  -9.65401  -9.65195  -9.64637
 Alpha  occ. eigenvalues --   -9.64416  -9.64393  -9.64343  -9.63093  -9.63007
 Alpha  occ. eigenvalues --   -9.60230  -9.58144  -9.57840  -9.57466  -9.56482
 Alpha  occ. eigenvalues --   -3.22545  -2.06821  -1.99901  -1.99522  -0.59858
 Alpha  occ. eigenvalues --   -0.58773  -0.57987  -0.57600  -0.55311  -0.53569
 Alpha  occ. eigenvalues --   -0.50645  -0.50151  -0.47225  -0.45159  -0.45014
 Alpha  occ. eigenvalues --   -0.38360  -0.36228  -0.36145  -0.33428  -0.33123
 Alpha  occ. eigenvalues --   -0.29349  -0.28408  -0.22839  -0.22745  -0.20930
 Alpha  occ. eigenvalues --   -0.20624  -0.18612  -0.15284  -0.14687  -0.14478
 Alpha  occ. eigenvalues --   -0.10986  -0.10765  -0.10443  -0.08398  -0.06757
 Alpha  occ. eigenvalues --   -0.06470  -0.06328  -0.05799  -0.04511  -0.03892
 Alpha  occ. eigenvalues --   -0.03551  -0.02823  -0.02279  -0.00839   0.00339
 Alpha  occ. eigenvalues --    0.00529   0.01130   0.01612   0.01789   0.02037
 Alpha  occ. eigenvalues --    0.02447   0.02952   0.05673   0.05918   0.06322
 Alpha  occ. eigenvalues --    0.06762   0.07203   0.07461   0.07812   0.08637
 Alpha  occ. eigenvalues --    0.09499   0.10660   0.10844   0.13748   0.14405
 Alpha  occ. eigenvalues --    0.14741   0.15091   0.15522   0.16292   0.18117
 Alpha  occ. eigenvalues --    0.20229   0.20713   0.21480   0.22222   0.23209
 Alpha  occ. eigenvalues --    0.23456   0.23921   0.24402   0.24843   0.24997
 Alpha  occ. eigenvalues --    0.25328   0.25710   0.27828   0.28807   0.29288
 Alpha virt. eigenvalues --    0.41645   0.41795   0.44338   0.44676   0.46778
 Alpha virt. eigenvalues --    0.47130   0.48822   0.50487   0.51918   0.52085
 Alpha virt. eigenvalues --    0.57173   0.60830   0.60992   0.65132   0.65621

  Beta  occ. eigenvalues -- -253.39987 -29.35292 -25.80188 -25.78934 -25.78692
  Beta  occ. eigenvalues --  -18.49745 -18.49255 -18.45831 -18.45599 -18.45246
  Beta  occ. eigenvalues --  -18.43434 -18.41910 -18.41699 -18.37957  -9.70550
  Beta  occ. eigenvalues --   -9.70389  -9.70202  -9.70125  -9.67341  -9.67336
  Beta  occ. eigenvalues --   -9.66170  -9.66000  -9.65400  -9.65188  -9.64628
  Beta  occ. eigenvalues --   -9.64471  -9.64430  -9.64342  -9.63109  -9.63003
  Beta  occ. eigenvalues --   -9.60073  -9.58445  -9.58292  -9.57565  -9.56699
  Beta  occ. eigenvalues --   -3.11485  -1.90990  -1.90284  -1.89508  -0.59922
  Beta  occ. eigenvalues --   -0.58816  -0.58058  -0.57652  -0.55591  -0.53908
  Beta  occ. eigenvalues --   -0.50694  -0.50181  -0.47844  -0.45182  -0.45020
  Beta  occ. eigenvalues --   -0.38875  -0.36249  -0.36152  -0.33447  -0.33125
  Beta  occ. eigenvalues --   -0.30147  -0.28703  -0.22868  -0.22747  -0.20934
  Beta  occ. eigenvalues --   -0.20623  -0.19377  -0.15407  -0.14767  -0.14480
  Beta  occ. eigenvalues --   -0.11140  -0.10772  -0.10396  -0.08408  -0.06777
  Beta  occ. eigenvalues --   -0.06476  -0.06315  -0.05771  -0.04521  -0.03874
  Beta  occ. eigenvalues --   -0.03317  -0.02716  -0.02176  -0.00971   0.00324
  Beta  occ. eigenvalues --    0.00569   0.01116   0.01631   0.01727   0.02080
  Beta  occ. eigenvalues --    0.02468   0.03038   0.05527   0.05882   0.06041
  Beta  occ. eigenvalues --    0.06653   0.07060   0.07335   0.07726   0.08878
  Beta  occ. eigenvalues --    0.09507   0.10235   0.10840   0.13475   0.14590
  Beta  occ. eigenvalues --    0.14786   0.16186   0.17235   0.18794   0.20043
  Beta  occ. eigenvalues --    0.20578   0.21388   0.21539   0.22101   0.22865
  Beta  occ. eigenvalues --    0.23544   0.23823   0.24493   0.25004   0.25401
  Beta  occ. eigenvalues --    0.26394   0.27807   0.32577   0.39052
  Beta virt. eigenvalues --    0.41462   0.41752   0.44112   0.44571   0.48714
  Beta virt. eigenvalues --    0.49382   0.50104   0.51393   0.52037   0.52705
  Beta virt. eigenvalues --    0.54499   0.55016   0.60789   0.60985   0.64757

 Mulliken charges and spin densities:
               1          2
     1  C   -0.147955   0.000481
     2  C   -0.117150  -0.014889
     3  C   -0.131516   0.006573
     4  C    0.098398  -0.003801
     5  C   -0.078144  -0.009343
     6  C   -0.107318   0.000942
     7  C    0.166795  -0.001878
     8  O   -0.328492  -0.018962
     9  O   -0.336350   0.003947
    10  O   -0.292378  -0.026191
    11  H    0.007809   0.000020
    12  H    0.015157   0.000651
    13  H    0.039956  -0.000236
    14  H    0.042178  -0.000000
    15  Fe   0.991303   1.988680
    16  C   -0.146035   0.107437
    17  C   -0.163337  -0.296192
    18  C   -0.161905  -0.057605
    19  C    0.067034  -0.024719
    20  C   -0.113501  -0.143634
    21  C   -0.140490  -0.196671
    22  C    0.111761  -0.043198
    23  O   -0.397478   0.020302
    24  O   -0.346206  -0.240115
    25  O   -0.349192  -0.043662
    26  H   -0.011998  -0.003830
    27  H   -0.016023   0.013833
    28  H    0.009512   0.003481
    29  H    0.009981   0.009569
    30  C   -0.149517   0.004194
    31  C   -0.116623  -0.004764
    32  C   -0.135955   0.001003
    33  C    0.098620   0.002509
    34  C   -0.076623   0.001491
    35  C   -0.107718  -0.002922
    36  C    0.171970  -0.002276
    37  O   -0.334486  -0.002416
    38  O   -0.335686  -0.014195
    39  O   -0.284942  -0.013766
    40  H    0.007064  -0.000164
    41  H    0.013868   0.000194
    42  H    0.033744  -0.000029
    43  H    0.041865   0.000150
 Sum of Mulliken charges =  -3.00000   1.00000

 Dipole moment (field-independent basis, Debye):
    X=             -4.9121    Y=              3.2102    Z=             -3.7508  Tot=              6.9644
 Quadrupole moment (field-independent basis, Debye-Ang):
   XX=           -296.1019   YY=           -273.1595   ZZ=           -217.1072
   XY=             10.9283   XZ=              3.8418   YZ=             -4.3526

  Exact polarizability:     397.294    -104.514     426.849      -9.139       6.144     168.225
 Approx polarizability:     583.659    -142.346     628.959     -22.612      38.615     355.885

                      1                      2                      3
                      A                      A                      A
 Frequencies --     11.3864                13.5194                21.0426
 Red. masses --      6.9325                 6.8622                 6.8673
 Frc consts  --      0.0005                 0.0007                 0.0018
 IR Inten    --      0.0435                 0.1644                 0.1868

                      4                      5                      6
                      A                      A                      A
 Frequencies --     41.5369                42.7905                45.0280
 Red. masses --      8.1144                 7.7428                 8.1646
 Frc consts  --      0.0082                 0.0084                 0.0098
 IR Inten    --      0.1369                 0.4062                 0.9591

                      7                      8                      9
                      A                      A                      A
 Frequencies --    106.0866               108.4787               117.1793
 Red. masses --      5.0774                 5.1234                 5.0495
 Frc consts  --      0.0337                 0.0355                 0.0409
 IR Inten    --      0.0766                 0.4777                 0.5584

                     10                     11                     12
                      A                      A                      A
 Frequencies --    145.0398               164.9812               169.1613
 Red. masses --      9.0080                 8.6351                 8.1123
 Frc consts  --      0.1116                 0.1385                 0.1368
 IR Inten    --      5.0346                 7.9658                 3.5232

                     13                     14                     15
                      A                      A                      A
 Frequencies --    191.6192               194.6768               207.8752
 Red. masses --      6.7172                 8.5825                 7.0702
 Frc consts  --      0.1453                 0.1916                 0.1800
 IR Inten    --      1.1603                 8.1523                 3.7089

                     16                     17                     18
                      A                      A                      A
 Frequencies --    220.2868               226.6268               243.2147
 Red. masses --      7.4157                 7.6599                 6.6706
 Frc consts  --      0.2120                 0.2318                 0.2325
 IR Inten    --      0.4560                 1.7203                 1.2060

                     19                     20                     21
                      A                      A                      A
 Frequencies --    255.8725               260.5851               274.8470
 Red. masses --     11.1779                 9.6727                11.3642
 Frc consts  --      0.4312                 0.3870                 0.5058
 IR Inten    --     17.5236                 4.1877                 5.5824

                     22                     23                     24
                      A                      A                      A
 Frequencies --    297.8163               313.2851               327.1643
 Red. masses --     12.4459                11.6688                12.8362
 Frc consts  --      0.6504                 0.6748                 0.8095
 IR Inten    --      7.9034                 2.6843                20.8001

                     25                     26                     27
                      A                      A                      A
 Frequencies --    353.3402               357.8681               376.7995
 Red. masses --     13.5943                15.4023                10.2488
 Frc consts  --      1.0000                 1.1622                 0.8573
 IR Inten    --     25.2345                18.9318                26.5201

                     28                     29                     30
                      A                      A                      A
 Frequencies --    382.6680               394.0263               414.8952
 Red. masses --      4.4626                13.2374                13.9383
 Frc consts  --      0.3850                 1.2109                 1.4136
 IR Inten    --      4.3587                 4.1057                71.0941

                     31                     32                     33
                      A                      A                      A
 Frequencies --    436.4139               437.9618               442.3590
 Red. masses --      4.1203                 4.1509                12.5505
 Frc consts  --      0.4624                 0.4691                 1.4470
 IR Inten    --      1.5072                 0.9080                12.2905

                     34                     35                     36
                      A                      A                      A
 Frequencies --    458.8672               469.4514               490.6981
 Red. masses --     14.4086                14.5671                12.3919
 Frc consts  --      1.7875                 1.8915                 1.7580
 IR Inten    --     23.3724                 3.7483                17.8057

                     37                     38                     39
                      A                      A                      A
 Frequencies --    533.5232               534.9949               537.7875
 Red. masses --      3.6962                 3.8437                 5.8960
 Frc consts  --      0.6199                 0.6482                 1.0047
 IR Inten    --      2.7062                 2.1520                 1.4008

                     40                     41                     42
                      A                      A                      A
 Frequencies --    559.9171               585.5591               587.9554
 Red. masses --      8.1220                 7.1594                 7.4391
 Frc consts  --      1.5002                 1.4463                 1.5152
 IR Inten    --     11.7697                 4.2295                 6.0681

                     43                     44                     45
                      A                      A                      A
 Frequencies --    602.1917               603.2620               609.4649
 Red. masses --      8.5945                 8.4315                 8.2765
 Frc consts  --      1.8363                 1.8079                 1.8113
 IR Inten    --     23.1409                11.6286                 6.3499

                     46                     47                     48
                      A                      A                      A
 Frequencies --    631.4401               649.3960               661.5624
 Red. masses --      1.3901                 7.9351                 7.0750
 Frc consts  --      0.3266                 1.9716                 1.8244
 IR Inten    --      5.8294                 8.9882                 0.8046

                     49                     50                     51
                      A                      A                      A
 Frequencies --    668.4813               672.0084               675.9448
 Red. masses --      6.9604                 7.4302                 7.3505
 Frc consts  --      1.8326                 1.9770                 1.9787
 IR Inten    --      0.9899                 8.0709                 8.4761

                     52                     53                     54
                      A                      A                      A
 Frequencies --    681.0036               690.2316               751.5512
 Red. masses --      7.0329                 4.8775                 2.2017
 Frc consts  --      1.9217                 1.3691                 0.7327
 IR Inten    --     12.9910                11.9189                20.5022

                     55                     56                     57
                      A                      A                      A
 Frequencies --    751.7338               761.8515               770.9982
 Red. masses --      2.1533                 1.2911                 2.0501
 Frc consts  --      0.7169                 0.4415                 0.7180
 IR Inten    --     11.9486                 6.4088                 0.6117

                     58                     59                     60
                      A                      A                      A
 Frequencies --    771.4243               801.8931               810.6340
 Red. masses --      2.0046                 8.9814                 8.9673
 Frc consts  --      0.7029                 3.4027                 3.4718
 IR Inten    --      0.5855                55.8832                88.1446

                     61                     62                     63
                      A                      A                      A
 Frequencies --    818.6162               848.6216               851.4922
 Red. masses --      1.2535                 1.4512                 5.4511
 Frc consts  --      0.4949                 0.6158                 2.3286
 IR Inten    --      8.8900                 0.9069               251.3116

                     64                     65                     66
                      A                      A                      A
 Frequencies --    854.7062               896.3492               905.3752
 Red. masses --      1.5874                 6.8772                 6.5773
 Frc consts  --      0.6832                 3.2555                 3.1765
 IR Inten    --     35.4054                85.6188                 7.9124

                     67                     68                     69
                      A                      A                      A
 Frequencies --    909.6848               942.4045               989.1887
 Red. masses --      6.5818                 1.1442                 1.2984
 Frc consts  --      3.2091                 0.5987                 0.7486
 IR Inten    --      4.0915                 0.4559                 2.3741

                     70                     71                     72
                      A                      A                      A
 Frequencies --    990.1344              1008.1658              1008.9214
 Red. masses --      1.3059                 1.4293                 2.9048
 Frc consts  --      0.7543                 0.8559                 1.7421
 IR Inten    --      0.7513                32.3000                91.3914

                     73                     74                     75
                      A                      A                      A
 Frequencies --   1009.5155              1065.4417              1090.9021
 Red. masses --      1.3000                 2.1988                 2.1208
 Frc consts  --      0.7806                 1.4706                 1.4870
 IR Inten    --     16.7550               242.0939                39.0659

                     76                     77                     78
                      A                      A                      A
 Frequencies --   1093.5685              1119.6434              1120.2562
 Red. masses --      2.0954                 4.1793                 4.0402
 Frc consts  --      1.4764                 3.0868                 2.9874
 IR Inten    --     16.7175                19.3158                52.8158

                     79                     80                     81
                      A                      A                      A
 Frequencies --   1155.2277              1190.7814              1198.8542
 Red. masses --      2.1159                 2.0611                 1.9308
 Frc consts  --      1.6637                 1.7220                 1.6350
 IR Inten    --     79.3543                77.9350                26.7797

                     82                     83                     84
                      A                      A                      A
 Frequencies --   1215.5055              1237.4171              1246.2982
 Red. masses --      1.3820                 1.5964                 1.1791
 Frc consts  --      1.2030                 1.4402                 1.0791
 IR Inten    --     40.5874               336.0340                 5.9070

                     85                     86                     87
                      A                      A                      A
 Frequencies --   1261.6664              1268.8305              1271.9764
 Red. masses --      2.1812                 2.6692                 2.5435
 Frc consts  --      2.0457                 2.5318                 2.4246
 IR Inten    --    201.2405                52.4244               145.6539

                     88                     89                     90
                      A                      A                      A
 Frequencies --   1281.9969              1296.3140              1307.1750
 Red. masses --      2.3115                 3.3186                 3.3811
 Frc consts  --      2.2383                 3.2857                 3.4039
 IR Inten    --    185.5269                28.3744                97.6041

                     91                     92                     93
                      A                      A                      A
 Frequencies --   1366.9769              1373.6063              1379.3695
 Red. masses --      3.0367                 3.0367                 2.5975
 Frc consts  --      3.3433                 3.3758                 2.9118
 IR Inten    --     60.6676                30.7524                11.4308

                     94                     95                     96
                      A                      A                      A
 Frequencies --   1401.2461              1456.5895              1472.5790
 Red. masses --     10.6954                 2.8834                 2.5334
 Frc consts  --     12.3731                 3.6043                 3.2367
 IR Inten    --    170.5606                90.0368                67.8739

                     97                     98                     99
                      A                      A                      A
 Frequencies --   1521.2642              1549.7612              1575.5477
 Red. masses --      3.7991                 2.2906                 2.5345
 Frc consts  --      5.1802                 3.2414                 3.7068
 IR Inten    --     89.7669               486.1457                35.5284

                    100                    101                    102
                      A                      A                      A
 Frequencies --   1580.6971              1595.6499              1607.7242
 Red. masses --      2.7445                 2.7090                 3.3780
 Frc consts  --      4.0402                 4.0638                 5.1443
 IR Inten    --     30.0706                 3.2061               194.4667

                    103                    104                    105
                      A                      A                      A
 Frequencies --   1620.0425              1637.8233              1650.7934
 Red. masses --      5.0265                 3.5614                 6.1402
 Frc consts  --      7.7726                 5.6286                 9.8587
 IR Inten    --    173.0090               661.7942               176.8363

                    106                    107                    108
                      A                      A                      A
 Frequencies --   1658.1348              1678.5212              1702.4883
 Red. masses --      3.9531                 5.0191                 5.2074
 Frc consts  --      6.4036                 8.3316                 8.8927
 IR Inten    --     18.1117               284.6771                12.4623

                    109                    110                    111
                      A                      A                      A
 Frequencies --   1719.3056              1750.3450              1766.5614
 Red. masses --      5.9151                10.5503                 9.9044
 Frc consts  --     10.3018                19.0441                18.2112
 IR Inten    --     35.7791               304.0192               238.9851

                    112                    113                    114
                      A                      A                      A
 Frequencies --   3347.7958              3376.2345              3376.3715
 Red. masses --      1.0849                 1.0861                 1.0866
 Frc consts  --      7.1639                 7.2942                 7.2980
 IR Inten    --    100.6214                 5.6930                13.6774

                    115                    116                    117
                      A                      A                      A
 Frequencies --   3378.6371              3384.0018              3385.6646
 Red. masses --      1.0854                 1.0916                 1.0917
 Frc consts  --      7.3003                 7.3653                 7.3728
 IR Inten    --     15.2463                 5.0758                25.2025

                    118                    119                    120
                      A                      A                      A
 Frequencies --   3394.2481              3408.4663              3415.9241
 Red. masses --      1.0960                 1.0971                 1.0968
 Frc consts  --      7.4396                 7.5094                 7.5407
 IR Inten    --     34.7020                 7.0968                19.6144

                    121                    122                    123
                      A                      A                      A
 Frequencies --   3416.6432              3428.3834              3432.8538
 Red. masses --      1.0977                 1.0987                 1.0980
 Frc consts  --      7.5498                 7.6090                 7.6237
 IR Inten    --     16.3289                 5.2544                 2.9395

 - Thermochemistry -
 -------------------
 Temperature   298.150 Kelvin.  Pressure   1.00000 Atm.
 Atom     1 has atomic number  6 and mass  12.00000

 Molecular mass:   463.98307 amu.
 Principal axes and moments of inertia in atomic units:
                           1         2         3
     Eigenvalues --  ******************************
           X            0.99999  -0.00369  -0.00027
           Y            0.00369   0.99999   0.00016
           Z            0.00027  -0.00016   1.00000
 This molecule is an asymmetric top.
 Rotational symmetry number  1.
 Warning -- assumption of classical behavior for rotation
           may cause significant error
 Rotational temperatures (Kelvin)      0.00742     0.00688     0.00462
 Rotational constants (GHZ):           0.15460     0.14337     0.09616
 Zero-point vibrational energy     784663.8 (Joules/Mol)
                                  187.53915 (Kcal/Mol)
 Warning -- explicit consideration of  45 degrees of freedom as
           vibrations may cause significant error
 Vibrational temperatures:     16.38    19.45    30.28    59.76    61.57
          (Kelvin)             64.79   152.63   156.08   168.59   208.68
                              237.37   243.39   275.70   280.10   299.09
                              316.94   326.07   349.93   368.14   374.92
                              395.44   428.49   450.75   470.72   508.38
                              514.89   542.13   550.57   566.92   596.94
                              627.90   630.13   636.46   660.21   675.44
                              706.01   767.62   769.74   773.76   805.60
                              842.49   845.94   866.42   867.96   876.88
                              908.50   934.34   951.84   961.80   966.87
                              972.53   979.81   993.09  1081.31  1081.58
                             1096.13  1109.29  1109.91  1153.75  1166.32
                             1177.81  1220.98  1225.11  1229.73  1289.65
                             1302.63  1308.83  1355.91  1423.22  1424.58
                             1450.53  1451.61  1452.47  1532.93  1569.56
                             1573.40  1610.92  1611.80  1662.12  1713.27
                             1724.88  1748.84  1780.37  1793.15  1815.26
                             1825.56  1830.09  1844.51  1865.11  1880.73
                             1966.77  1976.31  1984.61  2016.08  2095.71
                             2118.71  2188.76  2229.76  2266.86  2274.27
                             2295.78  2313.16  2330.88  2356.46  2375.12
                             2385.69  2415.02  2449.50  2473.70  2518.36
                             2541.69  4816.73  4857.65  4857.85  4861.11
                             4868.82  4871.22  4883.57  4904.02  4914.75
                             4915.79  4932.68  4939.11

 Zero-point correction=                           0.298863 (Hartree/Particle)
 Thermal correction to Energy=                    0.324636
 Thermal correction to Enthalpy=                  0.325580
 Thermal correction to Gibbs Free Energy=         0.240063
 Sum of electronic and zero-point Energies=          -2714.681627
 Sum of electronic and thermal Energies=             -2714.655854
 Sum of electronic and thermal Enthalpies=           -2714.654909
 Sum of electronic and thermal Free Energies=        -2714.740426

                     E (Thermal)             CV                S
                      KCal/Mol        Cal/Mol-Kelvin    Cal/Mol-Kelvin
 Total                  203.712            100.463            179.984
 Electronic               0.000              0.000              1.377
 Translational            0.889              2.981             44.293
 Rotational               0.889              2.981             36.265
 Vibrational            201.935             94.501             98.049
 Vibration     1          0.593              1.987              7.753
 Vibration     2          0.593              1.986              7.412
 Vibration     3          0.593              1.985              6.533
 Vibration     4          0.594              1.981              5.184
 Vibration     5          0.595              1.980              5.126
 Vibration     6          0.595              1.979              5.025
 Vibration     7          0.605              1.944              3.339
 Vibration     8          0.606              1.942              3.296
 Vibration     9          0.608              1.935              3.146
 Vibration    10          0.616              1.908              2.736
 Vibration    11          0.623              1.885              2.492
 Vibration    12          0.625              1.880              2.445
 Vibration    13          0.634              1.851              2.212
 Vibration    14          0.635              1.847              2.183
 Vibration    15          0.641              1.829              2.062
 Vibration    16          0.647              1.810              1.957
 Vibration    17          0.650              1.800              1.906
 Vibration    18          0.659              1.774              1.779
 Vibration    19          0.666              1.753              1.690
 Vibration    20          0.669              1.745              1.658
 Vibration    21          0.677              1.720              1.566
 Vibration    22          0.691              1.678              1.429
 Vibration    23          0.701              1.648              1.345
 Vibration    24          0.711              1.621              1.274
 Vibration    25          0.730              1.568              1.151
 Vibration    26          0.733              1.559              1.131
 Vibration    27          0.747              1.520              1.052
 Vibration    28          0.752              1.507              1.029
 Vibration    29          0.761              1.483              0.985
 Vibration    30          0.778              1.438              0.909
 Vibration    31          0.797              1.391              0.838
 Vibration    32          0.798              1.387              0.833
 Vibration    33          0.802              1.378              0.819
 Vibration    34          0.817              1.341              0.769
 Vibration    35          0.827              1.318              0.739
 Vibration    36          0.846              1.271              0.682
 Vibration    37          0.889              1.176              0.579
 Vibration    38          0.890              1.173              0.576
 Vibration    39          0.893              1.166              0.570
 Vibration    40          0.916              1.118              0.524
 Vibration    41          0.943              1.063              0.475
 Vibration    42          0.945              1.057              0.471
 Vibration    43          0.960              1.027              0.446
 Vibration    44          0.962              1.025              0.444
 Vibration    45          0.968              1.012              0.434

 Optimization completed on the basis of negligible forces.
    -- Stationary point found.
 Normal termination of Gaussian 16 at Thu Sep 26 11:21:22 2024.
