   * xtb version 6.6.0 (conda-forge) compiled by 'runner@Mac-1676020848589.local' on 2023-02-10
          program call               : xtb Fe_6H2O.xyz --opt extreme --gfn2 --chrg 2 --uhf 5 --alpb water

   ID    Z sym.   atoms
    1   26 Fe     1
    2    8 O      2, 4, 6, 8, 10, 12
    3    1 H      3, 5, 7, 9, 11, 13-19

      * Solvation model:               ALPB
        Solvent                        water
        Solvent mass                       1.8000E+01 g/mol
          :  Hamiltonian                  GFN2-xTB          :
 * total energy  :   -33.1588745 Eh     change       -0.1798384E-10 Eh
 * total energy  :   -33.1593960 Eh     change       -0.5214228E-03 Eh
 * total energy  :   -33.1597352 Eh     change       -0.3392564E-03 Eh
 * total energy  :   -33.1598863 Eh     change       -0.1510330E-03 Eh
 * total energy  :   -33.1600757 Eh     change       -0.1894399E-03 Eh
 * total energy  :   -33.1601856 Eh     change       -0.1098721E-03 Eh
 * total energy  :   -33.1602935 Eh     change       -0.1078898E-03 Eh
 * total energy  :   -33.1603958 Eh     change       -0.1023199E-03 Eh
 * total energy  :   -33.1604853 Eh     change       -0.8951522E-04 Eh
 * total energy  :   -33.1605251 Eh     change       -0.3978060E-04 Eh
 * total energy  :   -33.1607806 Eh     change       -0.2393476E-05 Eh
 * total energy  :   -33.1607817 Eh     change       -0.1150454E-05 Eh
 * total energy  :   -33.1607825 Eh     change       -0.7076163E-06 Eh
 * total energy  :   -33.1607830 Eh     change       -0.5259987E-06 Eh
 * total energy  :   -33.1607833 Eh     change       -0.3094987E-06 Eh
 * total energy  :   -33.1607834 Eh     change       -0.1116881E-06 Eh
 * total energy  :   -33.1607835 Eh     change       -0.5148470E-07 Eh
 * total energy  :   -33.1607835 Eh     change       -0.8262830E-09 Eh
 * total energy  :   -33.1607835 Eh     change       -0.3190623E-07 Eh
   *** GEOMETRY OPTIMIZATION CONVERGED AFTER 38 ITERATIONS ***

 final structure:
================
19
 xtb: 6.6.0 (conda-forge)
Fe          -0.78714451487387        0.71226915520398        0.03207710247639
O           -1.52333927971102        2.92215141551448        0.01280207218086
H           -1.85803704776679        3.46944768441139       -0.70169462990760
O            1.38277184622495        1.56218460645010       -0.03432293156127
H            2.21465479417314        1.10275165142833       -0.17098902385176
O           -0.61198496101904        0.94253732671292        2.34183063740006
H           -1.18134772101367        0.64886291424152        3.05723288429415
O           -0.53029947952301       -1.56773394019058        0.43436611190656
H           -1.28388732854830       -2.16279508672166        0.45084560882895
O           -3.03112173650222        0.21474561396913       -0.34773464130743
H           -3.36059218300885        0.01171864144668       -1.22650534093683
O           -0.39925425976000        0.19378613988181       -2.20482513181184
H           -0.30100301045325        0.76181215069939       -2.97261226444427
H           -0.15032242656398       -0.69107456639008       -2.48288533500111
H            1.56273258089868        2.49789081737580       -0.15355313265552
H           -1.68480075902623        3.40356849361214        0.82793362835715
H           -3.80024069264224        0.36643161446758        0.20674565692535
H            0.21738019212729        1.21397698791594        2.74257076722585
H            0.21431841697721       -2.05645185002276        0.79276337188855

          :  Hamiltonian                  GFN2-xTB          :
         :: total energy             -33.160783487749 Eh    ::
         :: gradient norm              0.000103341304 Eh/a0 ::
         :: HOMO-LUMO gap              8.381504139882 eV    ::
         :: SCC energy               -33.365358543425 Eh    ::
         :: -> dispersion             -0.005580904355 Eh    ::
         :: -> Gsolv                  -0.363984548144 Eh    ::
         :: repulsion energy           0.204437556874 Eh    ::

    * Orbital Energies and Occupations

         #    Occupation            Energy/Eh            Energy/eV
      -------------------------------------------------------------
         1        2.0000           -0.6781655             -18.4538
       ...           ...                  ...                  ...
        17        2.0000           -0.5027239             -13.6798
        18        2.0000           -0.5025757             -13.6758
        19        2.0000           -0.4495188             -12.2320
        20        2.0000           -0.4494139             -12.2292
        21        2.0000           -0.4453474             -12.1185
        22        2.0000           -0.4423289             -12.0364
        23        2.0000           -0.4422499             -12.0342
        24        2.0000           -0.4418101             -12.0223
        25        1.3777           -0.3454873              -9.4012
        26        1.3139           -0.3452189              -9.3939
        27        1.3084           -0.3451945              -9.3932
        28        1.0000           -0.3251682              -8.8483
        29        1.0000           -0.3251283              -8.8472 (HOMO)
        30                         -0.0171137              -0.4657 (LUMO)
        31                          0.0588115               1.6003
        32                          0.0706971               1.9238
        33                          0.0717395               1.9521
        34                          0.1368941               3.7251
        35                          0.1372390               3.7345
        36                          0.2904410               7.9033
        37                          0.2907302               7.9112
        38                          0.2909853               7.9181
        39                          0.2918215               7.9409
        40                          0.2920623               7.9474
       ...                                ...                  ...
        45                          0.8811941              23.9785
      -------------------------------------------------------------
                  HL-Gap            0.3080146 Eh            8.3815 eV

     #   Z          covCN         q      C6AA      α(0)
     1  26 Fe       1.429     1.145     4.826     7.087
     2   8 O        1.849    -0.625    25.717     6.848
     3   1 H        0.805     0.387     0.509     1.121
     4   8 O        1.846    -0.624    25.700     6.846
     5   1 H        0.805     0.386     0.511     1.123
     6   8 O        1.851    -0.624    25.700     6.846
     7   1 H        0.805     0.387     0.508     1.120
     8   8 O        1.849    -0.624    25.688     6.845
     9   1 H        0.805     0.380     0.522     1.135
    10   8 O        1.849    -0.624    25.700     6.846
    11   1 H        0.805     0.381     0.521     1.134
    12   8 O        1.850    -0.625    25.703     6.846
    13   1 H        0.805     0.387     0.510     1.121
    14   1 H        0.805     0.381     0.522     1.135
    15   1 H        0.805     0.381     0.521     1.134
    16   1 H        0.805     0.381     0.521     1.134
    17   1 H        0.805     0.386     0.510     1.122
    18   1 H        0.805     0.380     0.523     1.136
    19   1 H        0.805     0.386     0.511     1.122

Wiberg/Mayer (AO) data.
largest (>0.10) Wiberg bond orders for each atom

     #   Z sym  total        # sym  WBO       # sym  WBO       # sym  WBO
 ---------------------------------------------------------------------------
     1  26 Fe   1.425 --     6 O    0.236    12 O    0.235     2 O    0.235
                            10 O    0.235     8 O    0.235     4 O    0.235
     2   8 O    1.948 --    16 H    0.850     3 H    0.846     1 Fe   0.235
     3   1 H    0.847 --     2 O    0.846
     4   8 O    1.948 --    15 H    0.850     5 H    0.847     1 Fe   0.235
     5   1 H    0.848 --     4 O    0.847
     6   8 O    1.948 --    18 H    0.851     7 H    0.845     1 Fe   0.236
     7   1 H    0.847 --     6 O    0.845
     8   8 O    1.949 --     9 H    0.851    19 H    0.846     1 Fe   0.235
     9   1 H    0.853 --     8 O    0.851
    10   8 O    1.948 --    11 H    0.851    17 H    0.846     1 Fe   0.235
    11   1 H    0.853 --    10 O    0.851
    12   8 O    1.948 --    14 H    0.851    13 H    0.846     1 Fe   0.235
    13   1 H    0.848 --    12 O    0.846
    14   1 H    0.853 --    12 O    0.851
    15   1 H    0.852 --     4 O    0.850
    16   1 H    0.853 --     2 O    0.850
    17   1 H    0.848 --    10 O    0.846
    18   1 H    0.853 --     6 O    0.851
    19   1 H    0.848 --     8 O    0.846
 ---------------------------------------------------------------------------

molecular dipole:
                 x           y           z       tot (Debye)
 q only:       -2.966       2.714       0.100
   full:       -2.963       2.719       0.094      10.224

           -------------------------------------------------
          | TOTAL ENERGY              -33.160783487749 Eh   |
          | GRADIENT NORM               0.000103341304 Eh/α |
          | HOMO-LUMO GAP               8.381504139882 eV   |
           -------------------------------------------------

 * finished run on 2024/05/10 at 17:51:30.870
