   * xtb version 6.6.0 (conda-forge) compiled by 'runner@Mac-1676020848589.local' on 2023-02-10
          program call               : xtb Fe_6H2O.xyz --opt extreme --gfn2 --chrg 3 --uhf 6 --alpb water

   ID    Z sym.   atoms
    1   26 Fe     1
    2    8 O      2, 4, 6, 8, 10, 12
    3    1 H      3, 5, 7, 9, 11, 13-19

      * Solvation model:               ALPB
        Solvent                        water
        Solvent mass                       1.8000E+01 g/mol
          :  Hamiltonian                  GFN2-xTB          :
 * total energy  :   -32.7535884 Eh     change       -0.3232827E-09 Eh
 * total energy  :   -32.7616723 Eh     change       -0.8083954E-02 Eh
 * total energy  :   -32.7654007 Eh     change       -0.3728424E-02 Eh
 * total energy  :   -32.7656281 Eh     change       -0.2273600E-03 Eh
 * total energy  :   -32.7657945 Eh     change       -0.1663633E-03 Eh
 * total energy  :   -32.7659190 Eh     change       -0.1245122E-03 Eh
 * total energy  :   -32.7660872 Eh     change       -0.1682734E-03 Eh
 * total energy  :   -32.7661396 Eh     change       -0.5231270E-04 Eh
 * total energy  :   -32.7663297 Eh     change       -0.1901784E-03 Eh
 * total energy  :   -32.7663815 Eh     change       -0.5179318E-04 Eh
 * total energy  :   -32.7674300 Eh     change       -0.7592674E-06 Eh
 * total energy  :   -32.7674319 Eh     change       -0.1906476E-05 Eh
 * total energy  :   -32.7674326 Eh     change       -0.6890856E-06 Eh
 * total energy  :   -32.7674330 Eh     change       -0.3925152E-06 Eh
 * total energy  :   -32.7674333 Eh     change       -0.2852174E-06 Eh
 * total energy  :   -32.7674334 Eh     change       -0.9938563E-07 Eh
 * total energy  :   -32.7674335 Eh     change       -0.6573332E-07 Eh
 * total energy  :   -32.7674335 Eh     change       -0.2096471E-08 Eh
 * total energy  :   -32.7674335 Eh     change       -0.2616601E-07 Eh
   *** GEOMETRY OPTIMIZATION CONVERGED AFTER 63 ITERATIONS ***

 final structure:
================
19
 xtb: 6.6.0 (conda-forge)
Fe          -0.78006553251855        0.70984857027475        0.02349579389128
O           -1.57251117232866        2.75183936843688        0.21107536799871
H           -1.98142433462814        3.30315860462223       -0.46954483138419
O            1.18822857603172        1.67337799026996       -0.19541411496755
H            2.04750679301265        1.25387209423000       -0.33499722366048
O           -0.42068789468141        0.82837796993632        2.19084792107342
H           -0.98957989705712        0.51720418316258        2.90743755858488
O           -0.73718995829567       -1.42688075673182        0.54549886604068
H           -1.46678129942004       -2.05783750803188        0.48544880458623
O           -2.87608405580398        0.38150592782843       -0.55297953787835
H           -3.20966366503934        0.09301504835470       -1.41298038028704
O           -0.28942878530585        0.06905940301953       -2.02165113801018
H           -0.16529831577100        0.61540612050945       -2.80947156155758
H           -0.08455116085088       -0.83079268857008       -2.30846365725355
H            1.36541090118822        2.62219261615257       -0.24406353258009
H           -1.63902278689046        3.26729412722004        1.02556576980787
H           -3.66631694795816        0.54847867385952       -0.02255025858447
H            0.38172509777689        1.14514036231812        2.62615419620192
H           -0.01578313148194       -1.91818033687159        0.96063736797501

          :  Hamiltonian                  GFN2-xTB          :
         :: total energy             -32.767433480301 Eh    ::
         :: gradient norm              0.000147745856 Eh/a0 ::
         :: HOMO-LUMO gap              9.596022089416 eV    ::
         :: SCC energy               -32.961033394831 Eh    ::
         :: -> dispersion             -0.006006963448 Eh    ::
         :: -> Gsolv                  -0.783102661933 Eh    ::
         :: repulsion energy           0.193471417007 Eh    ::

    * Orbital Energies and Occupations

         #    Occupation            Energy/Eh            Energy/eV
      -------------------------------------------------------------
         1        2.0000           -0.7125341             -19.3890
       ...           ...                  ...                  ...
        17        2.0000           -0.5463928             -14.8681
        18        2.0000           -0.5463269             -14.8663
        19        2.0000           -0.4900856             -13.3359
        20        2.0000           -0.4895510             -13.3214
        21        2.0000           -0.4891293             -13.3099
        22        2.0000           -0.4816790             -13.1072
        23        2.0000           -0.4810494             -13.0900
        24        2.0000           -0.4798650             -13.0578
        25        1.0000           -0.4294094             -11.6848
        26        1.0000           -0.4272077             -11.6249
        27        1.0000           -0.4269431             -11.6177
        28        1.0000           -0.3968680             -10.7993
        29        1.0000           -0.3965816             -10.7915 (HOMO)
        30                         -0.0439343              -1.1955 (LUMO)
        31                          0.0479396               1.3045
        32                          0.0545905               1.4855
        33                          0.0552065               1.5022
        34                          0.1203688               3.2754
        35                          0.1207297               3.2852
        36                          0.2559042               6.9635
        37                          0.2569266               6.9913
        38                          0.2570550               6.9948
        39                          0.2573627               7.0032
        40                          0.2576282               7.0104
       ...                                ...                  ...
        45                          1.0954815              29.8096
      -------------------------------------------------------------
                  HL-Gap            0.3526473 Eh            9.5960 eV

     #   Z          covCN         q      C6AA      α(0)
     1  26 Fe       2.522     1.806     4.498     6.841
     2   8 O        2.032    -0.651    26.353     6.933
     3   1 H        0.805     0.427     0.437     1.039
     4   8 O        2.026    -0.652    26.370     6.935
     5   1 H        0.805     0.426     0.439     1.041
     6   8 O        2.029    -0.652    26.370     6.935
     7   1 H        0.805     0.427     0.438     1.040
     8   8 O        2.029    -0.652    26.368     6.935
     9   1 H        0.805     0.425     0.442     1.044
    10   8 O        2.031    -0.651    26.351     6.933
    11   1 H        0.805     0.425     0.442     1.044
    12   8 O        2.031    -0.652    26.382     6.937
    13   1 H        0.805     0.427     0.438     1.039
    14   1 H        0.805     0.424     0.442     1.045
    15   1 H        0.805     0.423     0.444     1.046
    16   1 H        0.805     0.424     0.443     1.046
    17   1 H        0.805     0.426     0.439     1.041
    18   1 H        0.805     0.424     0.443     1.046
    19   1 H        0.805     0.426     0.439     1.041

Wiberg/Mayer (AO) data.
largest (>0.10) Wiberg bond orders for each atom

     #   Z sym  total        # sym  WBO       # sym  WBO       # sym  WBO
 ---------------------------------------------------------------------------
     1  26 Fe   1.699 --    10 O    0.280     2 O    0.280    12 O    0.280
                             8 O    0.280     6 O    0.279     4 O    0.278
     2   8 O    1.918 --    16 H    0.812     3 H    0.809     1 Fe   0.280
     3   1 H    0.812 --     2 O    0.809
     4   8 O    1.917 --    15 H    0.812     5 H    0.810     1 Fe   0.278
     5   1 H    0.813 --     4 O    0.810
     6   8 O    1.917 --    18 H    0.812     7 H    0.810     1 Fe   0.279
     7   1 H    0.813 --     6 O    0.810
     8   8 O    1.917 --     9 H    0.811    19 H    0.810     1 Fe   0.280
     9   1 H    0.814 --     8 O    0.811
    10   8 O    1.918 --    11 H    0.811    17 H    0.810     1 Fe   0.280
    11   1 H    0.814 --    10 O    0.811
    12   8 O    1.917 --    14 H    0.812    13 H    0.809     1 Fe   0.280
    13   1 H    0.812 --    12 O    0.809
    14   1 H    0.814 --    12 O    0.812
    15   1 H    0.815 --     4 O    0.812
    16   1 H    0.815 --     2 O    0.812
    17   1 H    0.813 --    10 O    0.810
    18   1 H    0.815 --     6 O    0.812
    19   1 H    0.813 --     8 O    0.810
 ---------------------------------------------------------------------------

molecular dipole:
                 x           y           z       tot (Debye)
 q only:       -4.450       4.033       0.179
   full:       -4.449       4.033       0.186      15.269

           -------------------------------------------------
          | TOTAL ENERGY              -32.767433480301 Eh   |
          | GRADIENT NORM               0.000147745856 Eh/α |
          | HOMO-LUMO GAP               9.596022089416 eV   |
           -------------------------------------------------

 * finished run on 2024/05/10 at 17:51:29.655
