   * xtb version 6.6.0 (conda-forge) compiled by 'runner@Mac-1676020848589.local' on 2023-02-10
          program call               : xtb Fe_6H2O.xyz --opt extreme --gfn2 --chrg 0 --uhf 5 --alpb water

   ID    Z sym.   atoms
    1   26 Fe     1
    2    8 O      2, 4, 6, 8, 10, 12
    3    1 H      3, 5, 7, 9, 11, 13-19

      * Solvation model:               ALPB
        Solvent                        water
        Solvent mass                       1.8000E+01 g/mol
          :  Hamiltonian                  GFN2-xTB          :
 * total energy  :   -33.4025470 Eh     change       -0.1925571E-11 Eh
 * total energy  :   -33.4288205 Eh     change       -0.2627350E-01 Eh
 * total energy  :   -33.4436859 Eh     change       -0.1486544E-01 Eh
 * total energy  :   -33.4467886 Eh     change       -0.3102620E-02 Eh
 * total energy  :   -33.4514468 Eh     change       -0.4658276E-02 Eh
 * total energy  :   -33.4619266 Eh     change       -0.1047978E-01 Eh
 * total energy  :   -33.4721373 Eh     change       -0.1021072E-01 Eh
 * total energy  :   -33.4999832 Eh     change       -0.2784592E-01 Eh
 * total energy  :   -33.4612964 Eh     change        0.3868686E-01 Eh
 * total energy  :   -33.5531921 Eh     change       -0.9189568E-01 Eh
 * total energy  :   -33.7913881 Eh     change       -0.3744320E-06 Eh
 * total energy  :   -33.7913886 Eh     change       -0.5024766E-06 Eh
 * total energy  :   -33.7913892 Eh     change       -0.5973104E-06 Eh
 * total energy  :   -33.7913898 Eh     change       -0.5903826E-06 Eh
 * total energy  :   -33.7913902 Eh     change       -0.4279444E-06 Eh
 * total energy  :   -33.7913906 Eh     change       -0.3636395E-06 Eh
 * total energy  :   -33.7913909 Eh     change       -0.3146483E-06 Eh
 * total energy  :   -33.7913912 Eh     change       -0.2870215E-06 Eh
 * total energy  :   -33.7913912 Eh     change       -0.1584958E-08 Eh
   *** GEOMETRY OPTIMIZATION CONVERGED AFTER 185 ITERATIONS ***

 final structure:
================
19
 xtb: 6.6.0 (conda-forge)
Fe          -1.00455687346518        0.90035985316378        0.27766237435240
O           -0.91416093948770        3.37532984462405        0.41212057634463
H           -1.20461577479399        3.91690555174604       -0.32483742086377
O            1.45294333677687        1.29686790106959        0.09860981291789
H            1.80929185426311        1.34571893785476       -0.79059826579671
O           -1.81918752947854        1.21198554833928        2.62012792902780
H           -2.71547913060336        0.86695917784785        2.65581975338222
O           -0.11489746630716       -1.10668712628741        1.44959653846858
H           -0.49406398440684       -1.96470099221588        1.24625285905094
O           -3.51414218454578        0.42982350161851        0.11953075912566
H           -3.12029622286248        0.11708108211240       -0.72193902937824
O           -1.65327723268214        0.17981404159261       -1.72688209854236
H           -1.19969207871746       -0.39713055946150       -2.33172578391801
H            3.67104701512715       -3.09720010642359       -8.67461779860060
H            1.77524664457190        2.06407244303000        0.57901826198446
H           -1.27355343948767        3.75308373903482        1.21930376338392
H           -4.13682799387009        1.11886122399359       -0.12017474433285
H           -1.29438896390574        0.71664120237962        3.25432557552508
H            0.83909339359043       -1.18170549500480        1.36245234774089

          :  Hamiltonian                  GFN2-xTB          :
         :: total energy             -33.791391181559 Eh    ::
         :: gradient norm              0.000061962580 Eh/a0 ::
         :: HOMO-LUMO gap              7.766656817028 eV    ::
         :: SCC energy               -33.977024583625 Eh    ::
         :: -> dispersion             -0.008172128572 Eh    ::
         :: -> Gsolv                  -0.362853792554 Eh    ::
         :: repulsion energy           0.185513427961 Eh    ::

    * Orbital Energies and Occupations

         #    Occupation            Energy/Eh            Energy/eV
      -------------------------------------------------------------
         1        2.0000           -0.6744290             -18.3521
       ...           ...                  ...                  ...
        18        2.0000           -0.4536529             -12.3445
        19        2.0000           -0.4482974             -12.1988
        20        2.0000           -0.4468549             -12.1595
        21        2.0000           -0.4417229             -12.0199
        22        2.0000           -0.4402086             -11.9787
        23        2.0000           -0.4221214             -11.4865
        24        2.0000           -0.3622036              -9.8561
        25        2.0000           -0.3534396              -9.6176
        26        1.8556           -0.3257367              -8.8637
        27        1.1418           -0.3223360              -8.7712
        28        1.0022           -0.3182191              -8.6592
        29        1.0004           -0.3167182              -8.6183
        30        1.0000           -0.3066906              -8.3455 (HOMO)
        31                         -0.0212713              -0.5788 (LUMO)
        32                          0.0590937               1.6080
        33                          0.0659172               1.7937
        34                          0.0997512               2.7144
        35                          0.1344431               3.6584
        36                          0.2283630               6.2141
        37                          0.2887933               7.8585
        38                          0.2895348               7.8786
        39                          0.2924566               7.9582
        40                          0.2928773               7.9696
        41                          0.3422798               9.3139
       ...                                ...                  ...
        45                          0.7843964              21.3445
      -------------------------------------------------------------
                  HL-Gap            0.2854194 Eh            7.7667 eV

     #   Z          covCN         q      C6AA      α(0)
     1  26 Fe       0.742     0.907   192.508    40.632
     2   8 O        1.697    -0.612    25.435     6.809
     3   1 H        0.805     0.376     0.531     1.145
     4   8 O        1.687    -0.611    25.416     6.806
     5   1 H        0.805     0.366     0.552     1.167
     6   8 O        1.684    -0.600    25.158     6.772
     7   1 H        0.805     0.364     0.557     1.172
     8   8 O        1.692    -0.605    25.271     6.787
     9   1 H        0.805     0.373     0.537     1.151
    10   8 O        1.652    -0.631    25.904     6.871
    11   1 H        0.803     0.357     0.572     1.188
    12   8 O        1.187    -0.783    30.786     7.451
    13   1 H        0.806     0.263     0.844     1.443
    14   1 H        0.000    -1.000  3074.319   101.384
    15   1 H        0.805     0.373     0.536     1.150
    16   1 H        0.805     0.375     0.534     1.148
    17   1 H        0.805     0.354     0.580     1.196
    18   1 H        0.805     0.368     0.548     1.162
    19   1 H        0.805     0.368     0.549     1.163

Wiberg/Mayer (AO) data.
largest (>0.10) Wiberg bond orders for each atom

     #   Z sym  total        # sym  WBO       # sym  WBO       # sym  WBO
 ---------------------------------------------------------------------------
     1  26 Fe   1.650 --    12 O    0.547     2 O    0.234     8 O    0.229
                             6 O    0.217     4 O    0.216    10 O    0.174
     2   8 O    1.962 --    16 H    0.856     3 H    0.856     1 Fe   0.234
     3   1 H    0.858 --     2 O    0.856
     4   8 O    1.953 --     5 H    0.864    15 H    0.858     1 Fe   0.216
     5   1 H    0.865 --     4 O    0.864
     6   8 O    1.958 --     7 H    0.863    18 H    0.861     1 Fe   0.217
     7   1 H    0.867 --     6 O    0.863
     8   8 O    1.964 --    19 H    0.861     9 H    0.858     1 Fe   0.229
     9   1 H    0.860 --     8 O    0.858
    10   8 O    1.903 --    17 H    0.872    11 H    0.814     1 Fe   0.174
    11   1 H    0.873 --    10 O    0.814
    12   8 O    1.544 --    13 H    0.916     1 Fe   0.547
    13   1 H    0.927 --    12 O    0.916
    14   1 H    0.000
    15   1 H    0.860 --     4 O    0.858
    16   1 H    0.859 --     2 O    0.856
    17   1 H    0.874 --    10 O    0.872
    18   1 H    0.864 --     6 O    0.861
    19   1 H    0.864 --     8 O    0.861
 ---------------------------------------------------------------------------

molecular dipole:
                 x           y           z       tot (Debye)
 q only:       -7.702       8.449      18.743
   full:       -7.550       8.401      18.402      54.881

           -------------------------------------------------
          | TOTAL ENERGY              -33.791391181559 Eh   |
          | GRADIENT NORM               0.000061962580 Eh/α |
          | HOMO-LUMO GAP               7.766656817028 eV   |
           -------------------------------------------------

 * finished run on 2024/05/10 at 17:51:32.669
