 Gaussian 16, Revision C.02,

 ----------------------------------------------------------------------
 #p PBE1PBE empiricaldispersion=gd3 6-31+G(2df,p) opt=(cartesian,calcal
 l,maxcycles=500) freq scf=(maxcycles=500,xqc,maxconventional=50)
 ----------------------------------------------------------------------

 -----
 Title
 -----
 Symbolic Z-matrix:
 Charge =  2 Multiplicity = 6

 SCF Done:  E(UPBE1PBE) =  -1608.13100491     A.U. after   18 cycles
 SCF Done:  E(UPBE1PBE) =  -1608.17302212     A.U. after   15 cycles
 SCF Done:  E(UPBE1PBE) =  -1608.24123685     A.U. after   14 cycles
 SCF Done:  E(UPBE1PBE) =  -1608.30689367     A.U. after   14 cycles
 SCF Done:  E(UPBE1PBE) =  -1608.33683028     A.U. after   11 cycles
 SCF Done:  E(UPBE1PBE) =  -1608.37188718     A.U. after   12 cycles
 SCF Done:  E(UPBE1PBE) =  -1608.40323492     A.U. after   13 cycles
 SCF Done:  E(UPBE1PBE) =  -1608.41337396     A.U. after   13 cycles
 SCF Done:  E(UPBE1PBE) =  -1608.42189200     A.U. after   11 cycles
 SCF Done:  E(UPBE1PBE) =  -1608.42128306     A.U. after   11 cycles
 SCF Done:  E(UPBE1PBE) =  -1608.44935625     A.U. after    7 cycles
 SCF Done:  E(UPBE1PBE) =  -1608.44935623     A.U. after    6 cycles
 SCF Done:  E(UPBE1PBE) =  -1608.44935018     A.U. after    6 cycles
 SCF Done:  E(UPBE1PBE) =  -1608.44934634     A.U. after    6 cycles
 SCF Done:  E(UPBE1PBE) =  -1608.44935632     A.U. after    3 cycles
 SCF Done:  E(UPBE1PBE) =  -1608.44935304     A.U. after    6 cycles
 SCF Done:  E(UPBE1PBE) =  -1608.44935242     A.U. after    6 cycles
 SCF Done:  E(UPBE1PBE) =  -1608.44935601     A.U. after    4 cycles
 Optimization completed.
    -- Stationary point found.
 Normal termination of Gaussian 16 at Thu May 23 15:50:22 2024.

 ----------------------------------------------------------------------
 #P Geom=AllCheck Guess=TCheck SCRF=Check GenChk UPBE1PBE/6-31+G(2df,p)
  Freq
 ----------------------------------------------------------------------

 Structure from the checkpoint file:  "Mn_2_PBE0.chk"
 -----
 Title
 -----
 Charge =  2 Multiplicity = 6

 SCF Done:  E(UPBE1PBE) =  -1608.44935601     A.U. after    1 cycles

  Exact polarizability:      55.341      -0.000      55.337       0.001       0.001      55.330
 Approx polarizability:      64.738      -0.002      64.740       0.000       0.001      64.739

                      1                      2                      3
                      A                      A                      A
 Frequencies --     70.1286                70.3184                70.9730
 Red. masses --      4.7104                 4.7188                 4.7113
 Frc consts  --      0.0136                 0.0137                 0.0140
 IR Inten    --      3.5042                 3.4365                 3.4839

                      4                      5                      6
                      A                      A                      A
 Frequencies --     87.5918                87.7385                87.9368
 Red. masses --      4.8990                 4.9043                 4.9034
 Frc consts  --      0.0221                 0.0222                 0.0223
 IR Inten    --      0.0001                 0.0002                 0.0002

                      7                      8                      9
                      A                      A                      A
 Frequencies --    103.0028               103.1259               103.4906
 Red. masses --      5.5678                 5.5544                 5.5721
 Frc consts  --      0.0348                 0.0348                 0.0352
 IR Inten    --      0.1157                 0.1178                 0.1184

                     10                     11                     12
                      A                      A                      A
 Frequencies --    212.3419               212.5366               245.1673
 Red. masses --      1.0078                 1.0078                 5.8331
 Frc consts  --      0.0268                 0.0268                 0.2066
 IR Inten    --      0.0047                 0.0042                 0.0000

                     13                     14                     15
                      A                      A                      A
 Frequencies --    245.3045               271.8616               272.1894
 Red. masses --      5.8330                 1.0324                 1.0325
 Frc consts  --      0.2068                 0.0450                 0.0451
 IR Inten    --      0.0000                 0.0012                 0.0000

                     16                     17                     18
                      A                      A                      A
 Frequencies --    272.5435               315.8924               315.9428
 Red. masses --      1.0322                 4.2317                 4.2292
 Frc consts  --      0.0452                 0.2488                 0.2487
 IR Inten    --      0.0128                17.6664                17.7477

                     19                     20                     21
                      A                      A                      A
 Frequencies --    316.1163               326.5552               363.4050
 Red. masses --      4.2134                 6.0228                 1.1031
 Frc consts  --      0.2481                 0.3784                 0.0858
 IR Inten    --     18.0431                 0.0002                 0.0295

                     22                     23                     24
                      A                      A                      A
 Frequencies --    363.6418               363.7802               380.2499
 Red. masses --      1.1026                 1.1028                 1.2549
 Frc consts  --      0.0859                 0.0860                 0.1069
 IR Inten    --      0.0129                 0.3503               376.0969

                     25                     26                     27
                      A                      A                      A
 Frequencies --    380.3829               380.5957               400.7168
 Red. masses --      1.2556                 1.2531                 1.0079
 Frc consts  --      0.1070                 0.1069                 0.0954
 IR Inten    --    376.5607               375.3957                 0.1350

                     28                     29                     30
                      A                      A                      A
 Frequencies --    515.6898               515.8684               515.9713
 Red. masses --      1.1581                 1.1580                 1.1578
 Frc consts  --      0.1815                 0.1816                 0.1816
 IR Inten    --      0.0023                 0.1337                 0.0561

                     31                     32                     33
                      A                      A                      A
 Frequencies --    526.8381               526.9998               527.0502
 Red. masses --      1.2116                 1.2112                 1.2112
 Frc consts  --      0.1981                 0.1982                 0.1982
 IR Inten    --    291.8653               291.6313               291.2568

                     34                     35                     36
                      A                      A                      A
 Frequencies --   1653.3096              1653.3287              1653.4108
 Red. masses --      1.0878                 1.0878                 1.0878
 Frc consts  --      1.7519                 1.7520                 1.7521
 IR Inten    --    229.6626               225.9181               230.1354

                     37                     38                     39
                      A                      A                      A
 Frequencies --   1653.8288              1653.8683              1660.4547
 Red. masses --      1.0893                 1.0894                 1.0820
 Frc consts  --      1.7555                 1.7556                 1.7577
 IR Inten    --      4.9861                 0.4146                 0.0148

                     40                     41                     42
                      A                      A                      A
 Frequencies --   3813.6901              3814.0267              3814.4236
 Red. masses --      1.0443                 1.0443                 1.0444
 Frc consts  --      8.9491                 8.9504                 8.9534
 IR Inten    --     46.3673                 2.1221               179.5852

                     43                     44                     45
                      A                      A                      A
 Frequencies --   3814.5409              3814.5769              3819.7903
 Red. masses --      1.0445                 1.0445                 1.0452
 Frc consts  --      8.9543                 8.9545                 8.9852
 IR Inten    --    222.4103               224.9724                 0.3087

                     46                     47                     48
                      A                      A                      A
 Frequencies --   3905.9890              3906.4728              3906.5157
 Red. masses --      1.0839                 1.0838                 1.0838
 Frc consts  --      9.7428                 9.7451                 9.7453
 IR Inten    --     98.5988                 6.4804                 0.8646

                     49                     50                     51
                      A                      A                      A
 Frequencies --   3906.8759              3906.9279              3906.9578
 Red. masses --      1.0839                 1.0839                 1.0839
 Frc consts  --      9.7477                 9.7481                 9.7482
 IR Inten    --    293.3037               385.4000               390.8854

 - Thermochemistry -
 -------------------
 Temperature   298.150 Kelvin.  Pressure   1.00000 Atm.
 Atom     1 has atomic number 25 and mass  54.93805

 Molecular mass:   163.00143 amu.
 Principal axes and moments of inertia in atomic units:
                           1         2         3
     Eigenvalues --  1326.959181327.560131328.23262
           X            0.99998   0.00705   0.00013
           Y           -0.00705   0.99997   0.00081
           Z           -0.00012  -0.00081   1.00000
 This molecule is an asymmetric top.
 Rotational symmetry number  1.
 Warning -- assumption of classical behavior for rotation
           may cause significant error
 Rotational temperatures (Kelvin)      0.06527     0.06524     0.06521
 Rotational constants (GHZ):           1.36006     1.35944     1.35875
 Zero-point vibrational energy     393636.8 (Joules/Mol)
                                   94.08146 (Kcal/Mol)
 Warning -- explicit consideration of  33 degrees of freedom as
           vibrations may cause significant error
 Vibrational temperatures:    100.90   101.17   102.11   126.03   126.24
          (Kelvin)            126.52   148.20   148.38   148.90   305.51
                              305.79   352.74   352.94   391.15   391.62
                              392.13   454.50   454.57   454.82   469.84
                              522.86   523.20   523.40   547.09   547.29
                              547.59   576.54   741.96   742.22   742.37
                              758.00   758.24   758.31  2378.74  2378.77
                             2378.89  2379.49  2379.55  2389.02  5487.05
                             5487.53  5488.10  5488.27  5488.33  5495.83
                             5619.85  5620.54  5620.60  5621.12  5621.20
                             5621.24

 Zero-point correction=                           0.149928 (Hartree/Particle)
 Thermal correction to Energy=                    0.168230
 Thermal correction to Enthalpy=                  0.169174
 Thermal correction to Gibbs Free Energy=         0.104384
 Sum of electronic and zero-point Energies=          -1608.299428
 Sum of electronic and thermal Energies=             -1608.281126
 Sum of electronic and thermal Enthalpies=           -1608.280182
 Sum of electronic and thermal Free Energies=        -1608.344972

                     E (Thermal)             CV                S
                      KCal/Mol        Cal/Mol-Kelvin    Cal/Mol-Kelvin
 Total                  105.566             60.611            136.361
 Electronic               0.000              0.000              3.561
 Translational            0.889              2.981             41.174
 Rotational               0.889              2.981             29.238
 Vibrational            103.788             54.649             62.388
 Vibration     1          0.598              1.968              4.150
 Vibration     2          0.598              1.968              4.144
 Vibration     3          0.598              1.968              4.126
 Vibration     4          0.601              1.958              3.713
 Vibration     5          0.601              1.958              3.710
 Vibration     6          0.601              1.958              3.705
 Vibration     7          0.605              1.947              3.397
 Vibration     8          0.605              1.947              3.394
 Vibration     9          0.605              1.946              3.387
 Vibration    10          0.643              1.822              2.023
 Vibration    11          0.644              1.822              2.022
 Vibration    12          0.660              1.771              1.765
 Vibration    13          0.660              1.771              1.764
 Vibration    14          0.675              1.725              1.584
 Vibration    15          0.675              1.725              1.582
 Vibration    16          0.676              1.724              1.580
 Vibration    17          0.703              1.643              1.331
 Vibration    18          0.703              1.643              1.331
 Vibration    19          0.703              1.643              1.330
 Vibration    20          0.710              1.622              1.277
 Vibration    21          0.737              1.548              1.108
 Vibration    22          0.737              1.547              1.106
 Vibration    23          0.737              1.547              1.106
 Vibration    24          0.750              1.512              1.038
 Vibration    25          0.750              1.512              1.038
 Vibration    26          0.750              1.512              1.037
 Vibration    27          0.767              1.469              0.960
 Vibration    28          0.871              1.215              0.620
 Vibration    29          0.871              1.215              0.620
 Vibration    30          0.871              1.215              0.619
 Vibration    31          0.882              1.191              0.594
 Vibration    32          0.882              1.190              0.594
 Vibration    33          0.882              1.190              0.594

 Normal termination of Gaussian 16 at Thu May 23 15:52:11 2024.
 Gaussian 16:  ES64L-G16RevC.02  7-Dec-2021

 ----------------------------------------------------------------------
 #p PBE1PBE empiricaldispersion=gd3 scf=(maxcycles=500,xqc,maxconventio
 nal=50) scrf=(cpcm,solvent=water) geom=allcheck guess=read chkbasis
 ----------------------------------------------------------------------

 Structure from the checkpoint file:  "Mn_2_PBE0.chk_solvated"
 -----
 Title
 -----
 Charge =  2 Multiplicity = 6

                         Standard orientation:
 ---------------------------------------------------------------------
 Center     Atomic      Atomic             Coordinates (Angstroms)
 Number     Number       Type             X           Y           Z
 ---------------------------------------------------------------------
      1         25           0       -0.000085   -0.000161   -0.000186
      2          8           0        0.425262    2.112011    0.365164
      3          1           0       -0.025200    2.689231    0.992585
      4          8           0        1.587627   -0.060577   -1.500333
      5          1           0        2.515077   -0.274901   -1.346454
      6          8           0        1.442450   -0.557336    1.543756
      7          1           0        1.671011   -1.451919    1.821729
      8          8           0       -0.426762   -2.111762   -0.366073
      9          1           0       -1.100789   -2.645968    0.069896
     10          8           0       -1.586558    0.058858    1.501525
     11          1           0       -2.514474    0.272198    1.349174
     12          8           0       -1.441724    0.559082   -1.543923
     13          1           0       -1.669171    1.454293   -1.820711
     14          1           0       -1.971685   -0.041551   -2.080703
     15          1           0        1.496491    0.121436   -2.442842
     16          1           0        1.099907    2.646193   -0.069884
     17          1           0       -1.493734   -0.123093    2.443876
     18          1           0        1.969901    0.044687    2.081614
     19          1           0        0.022439   -2.688789   -0.994572
 ---------------------------------------------------------------------

 SCF Done:  E(UPBE1PBE) =  -1608.72303048     A.U. after    9 cycles

 The electronic state is 6-A.
 Alpha  occ. eigenvalues -- -235.77270 -27.48957 -23.52773 -23.52773 -23.52772
 Alpha  occ. eigenvalues --  -19.28571 -19.28571 -19.28569 -19.28568 -19.28566
 Alpha  occ. eigenvalues --  -19.28565  -3.35393  -2.20759  -2.20759  -2.20759
 Alpha  occ. eigenvalues --   -1.10476  -1.09952  -1.09950  -1.09947  -1.09827
 Alpha  occ. eigenvalues --   -1.09824  -0.60480  -0.60477  -0.60475  -0.60382
 Alpha  occ. eigenvalues --   -0.60380  -0.60377  -0.53875  -0.51727  -0.51724
 Alpha  occ. eigenvalues --   -0.49564  -0.49559  -0.49553  -0.40831  -0.40827
 Alpha  occ. eigenvalues --   -0.40825  -0.39255  -0.39250  -0.39248  -0.34808
 Alpha  occ. eigenvalues --   -0.34807  -0.34806  -0.31055  -0.31054
 Alpha virt. eigenvalues --   -0.04149   0.00031   0.00032   0.00033   0.04187
 Alpha virt. eigenvalues --    0.06302   0.06304   0.10021   0.10023   0.10024
 Alpha virt. eigenvalues --    0.10797   0.10799   0.10800   0.13912   0.15768

  Beta  occ. eigenvalues -- -235.77184 -27.40247 -23.45448 -23.45448 -23.45448
  Beta  occ. eigenvalues --  -19.28472 -19.28472 -19.28470 -19.28469 -19.28467
  Beta  occ. eigenvalues --  -19.28466  -3.11721  -1.95219  -1.95219  -1.95218
  Beta  occ. eigenvalues --   -1.10275  -1.09761  -1.09760  -1.09756  -1.09632
  Beta  occ. eigenvalues --   -1.09629  -0.60295  -0.60292  -0.60290  -0.60263
  Beta  occ. eigenvalues --   -0.60261  -0.60259  -0.52934  -0.49063  -0.49058
  Beta  occ. eigenvalues --   -0.49052  -0.48988  -0.48985  -0.39210  -0.39207
  Beta  occ. eigenvalues --   -0.39204  -0.38969  -0.38964  -0.38962
  Beta virt. eigenvalues --   -0.03739  -0.01684  -0.01683  -0.01682   0.00178
  Beta virt. eigenvalues --    0.00179   0.00180   0.01428   0.01428   0.04580
  Beta virt. eigenvalues --    0.07836   0.07837   0.10429   0.10432   0.10433

 Mulliken charges and spin densities:
               1          2
     1  Mn   1.270387   4.953778
     2  O   -0.712005   0.001925
     3  H    0.416766   0.002883
     4  O   -0.711873   0.001952
     5  H    0.416741   0.002879
     6  O   -0.712035   0.001926
     7  H    0.416811   0.002886
     8  O   -0.711902   0.001939
     9  H    0.416758   0.002882
    10  O   -0.711898   0.001944
    11  H    0.416758   0.002881
    12  O   -0.711902   0.001944
    13  H    0.416777   0.002882
    14  H    0.416757   0.002883
    15  H    0.416789   0.002885
    16  H    0.416773   0.002882
    17  H    0.416762   0.002883
    18  H    0.416768   0.002883
    19  H    0.416767   0.002882
 Sum of Mulliken charges =   2.00000   5.00000

 Dipole moment (field-independent basis, Debye):
    X=             -0.0022    Y=              0.0014    Z=              0.0052  Tot=              0.0059
 Quadrupole moment (field-independent basis, Debye-Ang):
   XX=            -15.3516   YY=            -15.3505   ZZ=            -15.3470
   XY=              0.0025   XZ=             -0.0006   YZ=              0.0001

 Normal termination of Gaussian 16 at Thu May 23 15:52:29 2024.
