 Gaussian 16, Revision C.02,
 Gaussian 16:  ES64L-G16RevC.02  7-Dec-2021

 ----------------------------------------------------------------------
 #p B3LYP empiricaldispersion=gd3 opt=(cartesian,calcall,maxcycles=500)
  freq scf=(maxcycles=500,xqc,maxconventional=50)
 ----------------------------------------------------------------------

 -----------------------------
 catecholate red low_spin spin
 -----------------------------
 Symbolic Z-matrix:
 Charge = -4 Multiplicity = 1

 SCF Done:  E(RB3LYP) =  -2378.74901725     A.U. after   46 cycles
 SCF Done:  E(RB3LYP) =  -2378.76760893     A.U. after   36 cycles
 SCF Done:  E(RB3LYP) =  -2378.78734589     A.U. after   35 cycles
 SCF Done:  E(RB3LYP) =  -2378.80525064     A.U. after   35 cycles
 SCF Done:  E(RB3LYP) =  -2378.81563456     A.U. after   37 cycles
 SCF Done:  E(RB3LYP) =  -2378.81965669     A.U. after   36 cycles
 SCF Done:  E(RB3LYP) =  -2378.82205441     A.U. after   30 cycles
 SCF Done:  E(RB3LYP) =  -2378.82380779     A.U. after   30 cycles
 SCF Done:  E(RB3LYP) =  -2378.82456472     A.U. after   30 cycles
 SCF Done:  E(RB3LYP) =  -2378.82482572     A.U. after   30 cycles
 SCF Done:  E(RB3LYP) =  -2378.82486016     A.U. after   27 cycles
 SCF Done:  E(RB3LYP) =  -2378.82486254     A.U. after   21 cycles
 SCF Done:  E(RB3LYP) =  -2378.82486332     A.U. after   19 cycles
 Optimization completed.
    -- Stationary point found.

 1\1\GINC-I692\Freq\RB3LYP\STO-3G\C18H12Fe1O6(4-)\HHARB\26-Sep-2024\0\\
 #p B3LYP empiricaldispersion=gd3 opt=(cartesian,calcall,maxcycles=500)
  freq scf=(maxcycles=500,xqc,maxconventional=50)\\catecholate red low_
 spin spin\\-4,1\C,-2.7540810108,-1.0881925646,0.3561562786\C,-3.276977
 4456,0.0974603834,0.8893517382\C,-2.4437560919,1.2512646006,1.12271952
 71\C,-1.0332928516,1.1641641405,0.7949407133\C,-0.488494935,-0.0711393
 172,0.2391908501\C,-1.3574182203,-1.2115485325,0.0182534598\O,0.844562
 0195,0.012216106,-0.0187586901\O,-0.0900755867,2.1326417623,0.94625975

 Normal termination of Gaussian 16 at Thu Sep 26 10:49:04 2024.

 ------------------------------------------------------------------
 #P Geom=AllCheck Guess=TCheck SCRF=Check GenChk RB3LYP/STO-3G Freq
 ------------------------------------------------------------------

 Structure from the checkpoint file:  "catecholate_red_low_spin.chk"
 -----------------------------
 catecholate red low_spin spin
 -----------------------------
 Charge = -4 Multiplicity = 1

                         Standard orientation:
 ---------------------------------------------------------------------
 Center     Atomic      Atomic             Coordinates (Angstroms)
 Number     Number       Type             X           Y           Z
 ---------------------------------------------------------------------
      1          6           0        5.099507   -0.536835   -0.597309
      2          6           0        5.123896    0.194984    0.597402
      3          6           0        3.908343    0.628645    1.241104
      4          6           0        2.639829    0.293385    0.622311
      5          6           0        2.614398   -0.469303   -0.622397
      6          6           0        3.857744   -0.888446   -1.241092
      7          8           0        1.350900   -0.706077   -1.067414
      8          8           0        1.394917    0.613985    1.067185
      9          1           0        6.052864   -0.852361   -1.056415
     10          1           0        6.096149    0.446234    1.056563
     11          1           0        3.949297    1.204508    2.174197
     12          1           0        3.860258   -1.465705   -2.174218
     13         26           0        0.035888   -0.001352   -0.000069
     14          6           0       -2.093816    4.642249   -0.676732
     15          6           0       -2.692504    4.381681    0.570078
     16          6           0       -2.437207    3.129051    1.263671
     17          6           0       -1.562963    2.163386    0.678518
     18          6           0       -0.930075    2.453573   -0.630877
     19          6           0       -1.221791    3.702563   -1.299965
     20          8           0       -0.130919    1.447074   -1.057235
     21          8           0       -1.231944    0.952605    1.168054
     22          1           0       -2.300841    5.600310   -1.185741
     23          1           0       -3.358531    5.131537    1.026211
     24          1           0       -2.934178    2.924857    2.221944
     25          1           0       -0.772600    3.932312   -2.275897
     26          6           0       -2.981029   -4.191234   -0.569583
     27          6           0       -2.400526   -4.491672    0.676844
     28          6           0       -1.466935   -3.612855    1.299712
     29          6           0       -1.092323   -2.386146    0.630627
     30          6           0       -1.704958   -2.053873   -0.678349
     31          6           0       -2.642456   -2.958495   -1.263170
     32          8           0       -1.293528   -0.867987   -1.167866
     33          8           0       -0.227178   -1.435677    1.056738
     34          1           0       -3.696240   -4.894524   -1.025426
     35          1           0       -2.671241   -5.433722    1.185852
     36          1           0       -1.033728   -3.872419    2.275393
     37          1           0       -3.125094   -2.721191   -2.221140
 ---------------------------------------------------------------------

 SCF Done:  E(RB3LYP) =  -2378.82486332     A.U. after    1 cycles

 The electronic state is 1-A.
 Alpha  occ. eigenvalues -- -253.06968 -29.03056 -25.47535 -25.46919 -25.46163
 Alpha  occ. eigenvalues --  -18.28112 -18.28071 -18.27386 -18.27378 -18.27368
 Alpha  occ. eigenvalues --  -18.27305  -9.47502  -9.47501  -9.45836  -9.45807
 Alpha  occ. eigenvalues --   -9.45805  -9.45755  -9.45723  -9.45723  -9.44624
 Alpha  occ. eigenvalues --   -9.44554  -9.43891  -9.43891  -9.42392  -9.42390
 Alpha  occ. eigenvalues --   -9.41525  -9.41524  -9.40370  -9.40366  -2.87718
 Alpha  occ. eigenvalues --   -1.68431  -1.67192  -1.65468  -0.40748  -0.39201
 Alpha  occ. eigenvalues --   -0.39052  -0.35228  -0.34942  -0.34614  -0.23974
 Alpha  occ. eigenvalues --   -0.23882  -0.23323  -0.14844  -0.14819  -0.13882
 Alpha  occ. eigenvalues --   -0.12201  -0.11704  -0.11353  -0.01585  -0.01367
 Alpha  occ. eigenvalues --   -0.01024  -0.00884  -0.00767  -0.00112   0.06554
 Alpha  occ. eigenvalues --    0.07374   0.07631   0.10545   0.11177   0.11706
 Alpha  occ. eigenvalues --    0.12779   0.13392   0.13869   0.15815   0.16303
 Alpha  occ. eigenvalues --    0.16589   0.16925   0.18828   0.18956   0.20012
 Alpha  occ. eigenvalues --    0.20190   0.20208   0.20746   0.22634   0.22641
 Alpha  occ. eigenvalues --    0.23172   0.24199   0.25059   0.28475   0.28482
 Alpha  occ. eigenvalues --    0.29202   0.30659   0.30794   0.31681   0.36158
 Alpha  occ. eigenvalues --    0.36727   0.38067   0.38192   0.38642   0.39163
 Alpha  occ. eigenvalues --    0.39462   0.39484   0.39810   0.44686   0.44870
 Alpha  occ. eigenvalues --    0.46161   0.55497   0.56275   0.59670
 Alpha virt. eigenvalues --    0.63668   0.63874   0.64614   0.64820   0.65380
 Alpha virt. eigenvalues --    0.66222   0.75693   0.77065   0.79152   0.79178
 Alpha virt. eigenvalues --    0.79657   0.82102   0.83627   0.83971   0.86901

 Mulliken charges:
               1
     1  C   -0.174561
     2  C   -0.174541
     3  C   -0.213108
     4  C    0.006921
     5  C    0.006938
     6  C   -0.213115
     7  O   -0.349789
     8  O   -0.349800
     9  H   -0.050869
    10  H   -0.050864
    11  H   -0.037016
    12  H   -0.037024
    13  Fe   0.768725
    14  C   -0.167791
    15  C   -0.187278
    16  C   -0.205915
    17  C    0.027832
    18  C    0.005742
    19  C   -0.197644
    20  O   -0.351489
    21  O   -0.326408
    22  H   -0.046824
    23  H   -0.052078
    24  H   -0.034405
    25  H   -0.029659
    26  C   -0.187274
    27  C   -0.167788
    28  C   -0.197663
    29  C    0.005746
    30  C    0.027816
    31  C   -0.205931
    32  O   -0.326406
    33  O   -0.351498
    34  H   -0.052078
    35  H   -0.046825
    36  H   -0.029666
    37  H   -0.034412
 Sum of Mulliken charges =  -4.00000

 Dipole moment (field-independent basis, Debye):
    X=             -0.3342    Y=              0.0114    Z=             -0.0001  Tot=              0.3344
 Quadrupole moment (field-independent basis, Debye-Ang):
   XX=           -300.6253   YY=           -296.4141   ZZ=           -174.4804
   XY=              0.1230   XZ=             -0.0531   YZ=             -1.6007

  Exact polarizability:     465.617      -0.264     456.444       0.172       5.159     126.859
 Approx polarizability:    1783.254     -13.394    1383.637       0.285       8.840     283.743

                      1                      2                      3
                      A                      A                      A
 Frequencies --     39.2098                41.4091                65.2551
 Red. masses --      6.1696                 6.0364                 6.7146
 Frc consts  --      0.0056                 0.0061                 0.0168
 IR Inten    --      0.0366                 0.1471                 2.7054

                      4                      5                      6
                      A                      A                      A
 Frequencies --     75.0098                79.2067                85.4311
 Red. masses --      4.7546                 4.6481                 4.4764
 Frc consts  --      0.0158                 0.0172                 0.0192
 IR Inten    --      0.4061                 1.0162                 0.1209

                      7                      8                      9
                      A                      A                      A
 Frequencies --    164.2720               171.3199               175.1032
 Red. masses --      6.9679                 6.1494                 7.2925
 Frc consts  --      0.1108                 0.1063                 0.1317
 IR Inten    --      4.2482                 2.1798                 4.1931

                     10                     11                     12
                      A                      A                      A
 Frequencies --    193.5083               202.9631               219.7052
 Red. masses --      7.1268                 6.6719                 7.8363
 Frc consts  --      0.1572                 0.1619                 0.2229
 IR Inten    --     19.9961                 2.6507                 2.7666

                     13                     14                     15
                      A                      A                      A
 Frequencies --    239.5138               243.5956               267.3454
 Red. masses --      8.6107                 8.8069                 7.6207
 Frc consts  --      0.2910                 0.3079                 0.3209
 IR Inten    --      1.5424                 2.1084                34.3060

                     16                     17                     18
                      A                      A                      A
 Frequencies --    270.1077               298.0026               310.7096
 Red. masses --      9.3108                12.3662                 9.9436
 Frc consts  --      0.4002                 0.6470                 0.5656
 IR Inten    --      0.1735                24.7578                 0.4458

                     19                     20                     21
                      A                      A                      A
 Frequencies --    351.9982               358.4315               363.9102
 Red. masses --     14.4200                10.4084                11.8606
 Frc consts  --      1.0527                 0.7879                 0.9254
 IR Inten    --    149.0501                15.8883                61.7894

                     22                     23                     24
                      A                      A                      A
 Frequencies --    398.7678               400.0271               411.8811
 Red. masses --      4.0133                 4.1970                 3.1728
 Frc consts  --      0.3760                 0.3957                 0.3171
 IR Inten    --      0.1459                 3.4921                 6.5331

                     25                     26                     27
                      A                      A                      A
 Frequencies --    468.9894               471.7728               483.9204
 Red. masses --      8.6687                 2.1513                13.9122
 Frc consts  --      1.1234                 0.2821                 1.9195
 IR Inten    --      7.3799                 0.7266                52.7526

                     28                     29                     30
                      A                      A                      A
 Frequencies --    486.8746               492.7632               507.5662
 Red. masses --     11.5538                 9.3615                 5.1498
 Frc consts  --      1.6137                 1.3393                 0.7817
 IR Inten    --     85.2794                10.6099                57.0456

                     31                     32                     33
                      A                      A                      A
 Frequencies --    518.2735               518.6378               523.7920
 Red. masses --      6.1112                 5.7976                 9.0335
 Frc consts  --      0.9672                 0.9188                 1.4602
 IR Inten    --      4.1878                 0.5549                 0.2673

                     34                     35                     36
                      A                      A                      A
 Frequencies --    532.7094               568.2246               585.2337
 Red. masses --      1.5657                 2.2459                 8.1674
 Frc consts  --      0.2618                 0.4273                 1.6481
 IR Inten    --     29.7752                 0.0077                66.3996

                     37                     38                     39
                      A                      A                      A
 Frequencies --    586.1800               591.3737               593.4036
 Red. masses --      8.2568                 7.0900                 6.5056
 Frc consts  --      1.6716                 1.4609                 1.3497
 IR Inten    --     36.9702                 0.3853                 8.0396

                     40                     41                     42
                      A                      A                      A
 Frequencies --    599.8710               601.6907               601.8831
 Red. masses --      6.7522                 1.2518                 1.2692
 Frc consts  --      1.4316                 0.2670                 0.2709
 IR Inten    --      3.8976                 2.2116                 2.9139

                     43                     44                     45
                      A                      A                      A
 Frequencies --    606.0350               644.2799               645.5128
 Red. masses --      7.8530                 1.5946                 1.6105
 Frc consts  --      1.6993                 0.3900                 0.3954
 IR Inten    --      5.9396                14.6719                 2.8981

                     46                     47                     48
                      A                      A                      A
 Frequencies --    654.8927               655.4450               668.2684
 Red. masses --      1.3489                 1.3418                 1.2438
 Frc consts  --      0.3409                 0.3396                 0.3273
 IR Inten    --     30.5389                 0.3161                 2.9743

                     49                     50                     51
                      A                      A                      A
 Frequencies --    676.0527               692.4167               693.9802
 Red. masses --      7.2348                 3.3258                 3.3387
 Frc consts  --      1.9482                 0.9395                 0.9474
 IR Inten    --      0.0000                 2.3969                 9.5158

                     52                     53                     54
                      A                      A                      A
 Frequencies --    783.2396               785.4101               809.6095
 Red. masses --      5.9985                 5.9942                 6.0176
 Frc consts  --      2.1681                 2.1786                 2.3239
 IR Inten    --    433.1801               496.6849                 0.0357

                     55                     56                     57
                      A                      A                      A
 Frequencies --    872.5276               872.7911               875.3421
 Red. masses --      1.1029                 1.1035                 1.0947
 Frc consts  --      0.4947                 0.4953                 0.4942
 IR Inten    --      0.0701                 2.0669                 0.0171

                     58                     59                     60
                      A                      A                      A
 Frequencies --    911.6431               915.4049               917.0371
 Red. masses --      6.0066                 6.2475                 6.0670
 Frc consts  --      2.9412                 3.0845                 3.0061
 IR Inten    --      6.4238                 0.0602                24.9152

                     61                     62                     63
                      A                      A                      A
 Frequencies --   1028.8184              1036.2333              1043.7891
 Red. masses --      2.4416                 2.2783                 2.2139
 Frc consts  --      1.5226                 1.4414                 1.4211
 IR Inten    --    129.8156               125.1903               163.3974

                     64                     65                     66
                      A                      A                      A
 Frequencies --   1067.3035              1108.7130              1133.9108
 Red. masses --      2.1085                 3.3598                 1.9848
 Frc consts  --      1.4151                 2.4334                 1.5036
 IR Inten    --     80.1501               422.7998                17.3588

                     67                     68                     69
                      A                      A                      A
 Frequencies --   1135.4669              1170.5851              1202.0357
 Red. masses --      1.8796                 2.2169                 5.9416
 Frc consts  --      1.4278                 1.7898                 5.0581
 IR Inten    --    154.4168               181.5166                 4.2093

                     70                     71                     72
                      A                      A                      A
 Frequencies --   1236.4936              1248.8757              1257.6501
 Red. masses --      1.6558                 3.7975                 2.6568
 Frc consts  --      1.4915                 3.4897                 2.4758
 IR Inten    --    356.7490               217.4285                23.9699

                     73                     74                     75
                      A                      A                      A
 Frequencies --   1298.9364              1311.8405              1331.5982
 Red. masses --      1.4949                 1.8530                 3.2810
 Frc consts  --      1.4861                 1.8788                 3.4277
 IR Inten    --     57.4272                82.2548               163.4887

                     76                     77                     78
                      A                      A                      A
 Frequencies --   1372.0459              1387.9340              1392.9296
 Red. masses --      1.7716                 2.5829                 2.3984
 Frc consts  --      1.9650                 2.9315                 2.7417
 IR Inten    --      4.2657                13.9195                13.8486

                     79                     80                     81
                      A                      A                      A
 Frequencies --   1405.8220              1409.5714              1427.8297
 Red. masses --      2.5377                 2.8379                 2.9524
 Frc consts  --      2.9549                 3.3222                 3.5464
 IR Inten    --    249.8652               205.5971               546.4813

                     82                     83                     84
                      A                      A                      A
 Frequencies --   1531.9277              1563.0059              1563.1798
 Red. masses --      3.1915                 2.5168                 4.6623
 Frc consts  --      4.4128                 3.6226                 6.7123
 IR Inten    --    119.3901               103.5719                23.7765

                     85                     86                     87
                      A                      A                      A
 Frequencies --   1571.7685              1578.4871              1595.5526
 Red. masses --      2.5690                 1.7779                 3.3919
 Frc consts  --      3.7392                 2.6099                 5.0876
 IR Inten    --     15.4831                15.9050                87.3041

                     88                     89                     90
                      A                      A                      A
 Frequencies --   1604.8816              1611.0680              1615.1512
 Red. masses --      4.2786                 2.7897                 2.6653
 Frc consts  --      6.4929                 4.2661                 4.0966
 IR Inten    --     56.1310                62.9538                68.7813

                     91                     92                     93
                      A                      A                      A
 Frequencies --   1634.5641              1637.2612              1674.1090
 Red. masses --      3.3571                 3.4166                 3.3367
 Frc consts  --      5.2847                 5.3961                 5.5098
 IR Inten    --    242.3237               204.6216               141.1210

                     94                     95                     96
                      A                      A                      A
 Frequencies --   3267.7184              3278.0922              3278.6272
 Red. masses --      1.0797                 1.0820                 1.0821
 Frc consts  --      6.7930                 6.8503                 6.8535
 IR Inten    --      6.3233               129.4973                26.6611

                     97                     98                     99
                      A                      A                      A
 Frequencies --   3299.9128              3304.2916              3305.3479
 Red. masses --      1.0930                 1.0867                 1.0873
 Frc consts  --      7.0128                 6.9907                 6.9986
 IR Inten    --    387.0938               208.7892                40.7539

                    100                    101                    102
                      A                      A                      A
 Frequencies --   3343.7695              3343.9725              3349.2976
 Red. masses --      1.0927                 1.0927                 1.0913
 Frc consts  --      7.1980                 7.1989                 7.2126
 IR Inten    --     21.5453               145.1259                78.1879

                    103                    104                    105
                      A                      A                      A
 Frequencies --   3352.3001              3352.6874              3357.3050
 Red. masses --      1.0965                 1.0964                 1.0951
 Frc consts  --      7.2604                 7.2612                 7.2726
 IR Inten    --     95.2942                17.4698                 3.6016

 - Thermochemistry -
 -------------------
 Temperature   298.150 Kelvin.  Pressure   1.00000 Atm.
 Atom     1 has atomic number  6 and mass  12.00000

 Molecular mass:   379.99833 amu.
 Principal axes and moments of inertia in atomic units:
                           1         2         3
     Eigenvalues --  8396.064768425.01091**********
           X            0.99999   0.00407  -0.00002
           Y           -0.00407   0.99999  -0.00049
           Z            0.00001   0.00049   1.00000
 This molecule is an asymmetric top.
 Rotational symmetry number  1.
 Warning -- assumption of classical behavior for rotation
           may cause significant error
 Rotational temperatures (Kelvin)      0.01032     0.01028     0.00598
 Rotational constants (GHZ):           0.21495     0.21421     0.12453
 Zero-point vibrational energy     681048.4 (Joules/Mol)
                                  162.77446 (Kcal/Mol)
 Warning -- explicit consideration of  43 degrees of freedom as
           vibrations may cause significant error
 Vibrational temperatures:     56.41    59.58    93.89   107.92   113.96
          (Kelvin)            122.92   236.35   246.49   251.93   278.42
                              292.02   316.11   344.61   350.48   384.65
                              388.62   428.76   447.04   506.45   515.70
                              523.59   573.74   575.55   592.61   674.77
                              678.78   696.25   700.50   708.98   730.27
                              745.68   746.20   753.62   766.45   817.55
                              842.02   843.38   850.85   853.78   863.08
                              865.70   865.98   871.95   926.98   928.75
                              942.24   943.04   961.49   972.69   996.23
                              998.48  1126.91  1130.03  1164.85  1255.37
                             1255.75  1259.42  1311.65  1317.06  1319.41
                             1480.24  1490.91  1501.78  1535.61  1595.19
                             1631.44  1633.68  1684.21  1729.46  1779.04
                             1796.85  1809.48  1868.88  1887.45  1915.87
                             1974.07  1996.93  2004.12  2022.66  2028.06
                             2054.33  2204.10  2248.82  2249.07  2261.42
                             2271.09  2295.64  2309.07  2317.97  2323.84
                             2351.77  2355.65  2408.67  4701.52  4716.44
                             4717.21  4747.84  4754.14  4755.66  4810.94
                             4811.23  4818.89  4823.21  4823.77  4830.41

 Zero-point correction=                           0.259398 (Hartree/Particle)
 Thermal correction to Energy=                    0.280969
 Thermal correction to Enthalpy=                  0.281913
 Thermal correction to Gibbs Free Energy=         0.210247
 Sum of electronic and zero-point Energies=          -2378.565466
 Sum of electronic and thermal Energies=             -2378.543894
 Sum of electronic and thermal Enthalpies=           -2378.542950
 Sum of electronic and thermal Free Energies=        -2378.614617

                     E (Thermal)             CV                S
                      KCal/Mol        Cal/Mol-Kelvin    Cal/Mol-Kelvin
 Total                  176.311             87.205            150.835
 Electronic               0.000              0.000              0.000
 Translational            0.889              2.981             43.697
 Rotational               0.889              2.981             35.282
 Vibrational            174.533             81.243             71.856
 Vibration     1          0.594              1.981              5.299
 Vibration     2          0.594              1.981              5.191
 Vibration     3          0.597              1.971              4.292
 Vibration     4          0.599              1.966              4.017
 Vibration     5          0.600              1.963              3.910
 Vibration     6          0.601              1.959              3.762
 Vibration     7          0.623              1.886              2.500
 Vibration     8          0.626              1.878              2.421
 Vibration     9          0.627              1.873              2.380
 Vibration    10          0.635              1.849              2.194
 Vibration    11          0.639              1.836              2.106
 Vibration    12          0.647              1.811              1.962
 Vibration    13          0.657              1.780              1.806
 Vibration    14          0.659              1.773              1.776
 Vibration    15          0.672              1.733              1.613
 Vibration    16          0.674              1.728              1.596
 Vibration    17          0.691              1.677              1.428
 Vibration    18          0.700              1.653              1.359
 Vibration    19          0.729              1.571              1.157
 Vibration    20          0.733              1.558              1.129
 Vibration    21          0.737              1.547              1.105
 Vibration    22          0.765              1.473              0.967
 Vibration    23          0.766              1.470              0.963
 Vibration    24          0.776              1.444              0.920
 Vibration    25          0.826              1.319              0.740
 Vibration    26          0.829              1.313              0.733
 Vibration    27          0.840              1.286              0.700
 Vibration    28          0.843              1.279              0.692
 Vibration    29          0.848              1.266              0.676
 Vibration    30          0.863              1.233              0.639
 Vibration    31          0.873              1.210              0.614
 Vibration    32          0.874              1.209              0.613
 Vibration    33          0.879              1.197              0.601
 Vibration    34          0.888              1.178              0.581
 Vibration    35          0.924              1.100              0.508
 Vibration    36          0.942              1.063              0.476
 Vibration    37          0.943              1.061              0.474
 Vibration    38          0.949              1.050              0.465
 Vibration    39          0.951              1.046              0.461
 Vibration    40          0.958              1.032              0.450
 Vibration    41          0.960              1.028              0.447
 Vibration    42          0.960              1.028              0.446
 Vibration    43          0.965              1.019              0.439

 1\1\GINC-I692\Freq\RB3LYP\STO-3G\C18H12Fe1O6(4-)\HHARB\26-Sep-2024\0\\
 #P Geom=AllCheck Guess=TCheck SCRF=Check GenChk RB3LYP/STO-3G Freq\\ca
 techolate red low_spin spin\\-4,1\C,-2.7540810108,-1.0881925646,0.3561
 562786\C,-3.2769774456,0.0974603834,0.8893517382\C,-2.4437560919,1.251
 2646006,1.1227195271\C,-1.0332928516,1.1641641405,0.7949407133\C,-0.48
 8494935,-0.0711393172,0.2391908501\C,-1.3574182203,-1.2115485325,0.018
 2534598\O,0.8445620195,0.012216106,-0.0187586901\O,-0.0900755867,2.132
 6417623,0.9462597545\H,-3.4267579741,-1.9479324516,0.1900974889\H,-4.3

 Normal termination of Gaussian 16 at Thu Sep 26 10:49:16 2024.
