 Gaussian 16, Revision C.02,

 ----------------------------------------------------------------------
 #p B3LYP empiricaldispersion=gd3 6-31+G(2df,p) opt=(cartesian,calcall,
 maxcycles=500) freq scf=(maxcycles=500,xqc,maxconventional=50)
 ----------------------------------------------------------------------

 -----
 Title
 -----
 Symbolic Z-matrix:
 Charge =  2 Multiplicity = 4

 SCF Done:  E(UB3LYP) =  -1401.93739938     A.U. after   18 cycles
 SCF Done:  E(UB3LYP) =  -1401.97316789     A.U. after   15 cycles
 SCF Done:  E(UB3LYP) =  -1402.03156553     A.U. after   16 cycles
 SCF Done:  E(UB3LYP) =  -1402.09195858     A.U. after   17 cycles
 SCF Done:  E(UB3LYP) =  -1402.10475840     A.U. after   17 cycles
 SCF Done:  E(UB3LYP) =  -1402.12951831     A.U. after   16 cycles
 SCF Done:  E(UB3LYP) =  -1402.15299667     A.U. after   17 cycles
 SCF Done:  E(UB3LYP) =  -1402.16767909     A.U. after   18 cycles
 SCF Done:  E(UB3LYP) =  -1402.18354445     A.U. after   15 cycles
 SCF Done:  E(UB3LYP) =  -1402.19733852     A.U. after   15 cycles
 SCF Done:  E(UB3LYP) =  -1402.21725545     A.U. after   14 cycles
 SCF Done:  E(UB3LYP) =  -1402.21730383     A.U. after   14 cycles
 SCF Done:  E(UB3LYP) =  -1402.21732282     A.U. after   14 cycles
 SCF Done:  E(UB3LYP) =  -1402.21733195     A.U. after   13 cycles
 SCF Done:  E(UB3LYP) =  -1402.21733335     A.U. after    9 cycles
 SCF Done:  E(UB3LYP) =  -1402.21733697     A.U. after    8 cycles
 SCF Done:  E(UB3LYP) =  -1402.21733464     A.U. after    8 cycles
 SCF Done:  E(UB3LYP) =  -1402.21733826     A.U. after    8 cycles
 Optimization completed.
    -- Stationary point found.
 Normal termination of Gaussian 16 at Thu May 23 18:10:18 2024.

 ----------------------------------------------------------------------
 #P Geom=AllCheck Guess=TCheck SCRF=Check GenChk UB3LYP/6-31+G(2df,p) F
 req
 ----------------------------------------------------------------------

 Structure from the checkpoint file:  "V_2_B3LYP.chk"
 -----
 Title
 -----
 Charge =  2 Multiplicity = 4

 SCF Done:  E(UB3LYP) =  -1402.21733826     A.U. after    1 cycles

  Exact polarizability:      56.814      -0.005      56.813      -0.001      -0.004      56.806
 Approx polarizability:      70.043      -0.001      70.047       0.000      -0.001      70.049

                      1                      2                      3
                      A                      A                      A
 Frequencies --     90.4585                90.5833                90.8583
 Red. masses --      5.1583                 5.1640                 5.1621
 Frc consts  --      0.0249                 0.0250                 0.0251
 IR Inten    --      0.0000                 0.0000                 0.0000

                      4                      5                      6
                      A                      A                      A
 Frequencies --    101.6291               102.2142               102.5494
 Red. masses --      5.5902                 5.5662                 5.5771
 Frc consts  --      0.0340                 0.0343                 0.0346
 IR Inten    --      8.3542                 8.2463                 8.2504

                      7                      8                      9
                      A                      A                      A
 Frequencies --    138.5110               138.6417               138.7829
 Red. masses --      4.6442                 4.6256                 4.6353
 Frc consts  --      0.0525                 0.0524                 0.0526
 IR Inten    --      0.0066                 0.0041                 0.0063

                     10                     11                     12
                      A                      A                      A
 Frequencies --    213.4475               213.8649               269.2574
 Red. masses --      1.0078                 1.0078                 1.0425
 Frc consts  --      0.0271                 0.0272                 0.0445
 IR Inten    --      0.0095                 0.0010                 0.0000

                     13                     14                     15
                      A                      A                      A
 Frequencies --    269.5723               269.8584               305.0527
 Red. masses --      1.0418                 1.0417                 5.8598
 Frc consts  --      0.0446                 0.0447                 0.3213
 IR Inten    --      0.0000                 0.0000                 0.0000

                     16                     17                     18
                      A                      A                      A
 Frequencies --    305.1723               340.9288               357.6710
 Red. masses --      5.8598                 5.9850                 1.4163
 Frc consts  --      0.3215                 0.4099                 0.1068
 IR Inten    --      0.0000                 0.0000               279.8028

                     19                     20                     21
                      A                      A                      A
 Frequencies --    357.8098               357.9586               360.6858
 Red. masses --      1.4172                 1.4172                 1.0823
 Frc consts  --      0.1069                 0.1070                 0.0830
 IR Inten    --    279.4922               279.6104                 0.0004

                     22                     23                     24
                      A                      A                      A
 Frequencies --    361.2393               361.5335               384.8507
 Red. masses --      1.0820                 1.0811                 2.7367
 Frc consts  --      0.0832                 0.0833                 0.2388
 IR Inten    --      0.0001                 0.0001               164.0298

                     25                     26                     27
                      A                      A                      A
 Frequencies --    384.8895               385.0231               398.8592
 Red. masses --      2.7200                 2.7072                 1.0079
 Frc consts  --      0.2374                 0.2365                 0.0945
 IR Inten    --    164.3049               166.7407                 0.1483

                     28                     29                     30
                      A                      A                      A
 Frequencies --    551.1371               551.2502               551.4072
 Red. masses --      1.1569                 1.1568                 1.1568
 Frc consts  --      0.2070                 0.2071                 0.2072
 IR Inten    --      0.0000                 0.0000                 0.0000

                     31                     32                     33
                      A                      A                      A
 Frequencies --    586.1580               586.2173               586.4123
 Red. masses --      1.2782                 1.2784                 1.2778
 Frc consts  --      0.2587                 0.2588                 0.2589
 IR Inten    --    212.7098               212.8106               212.9041

                     34                     35                     36
                      A                      A                      A
 Frequencies --   1656.6004              1656.6422              1656.7143
 Red. masses --      1.0891                 1.0891                 1.0891
 Frc consts  --      1.7610                 1.7610                 1.7612
 IR Inten    --    225.4994               225.5527               225.5664

                     37                     38                     39
                      A                      A                      A
 Frequencies --   1658.3373              1658.3936              1664.0556
 Red. masses --      1.0885                 1.0885                 1.0834
 Frc consts  --      1.7637                 1.7639                 1.7675
 IR Inten    --      0.0000                 0.0000                 0.0000

                     40                     41                     42
                      A                      A                      A
 Frequencies --   3761.1451              3761.1610              3761.1835
 Red. masses --      1.0442                 1.0442                 1.0443
 Frc consts  --      8.7032                 8.7032                 8.7039
 IR Inten    --      0.0113                 0.0926               235.5051

                     43                     44                     45
                      A                      A                      A
 Frequencies --   3761.1912              3761.2014              3766.9317
 Red. masses --      1.0443                 1.0443                 1.0451
 Frc consts  --      8.7040                 8.7040                 8.7372
 IR Inten    --    235.3165               235.2120                 0.0000

                     46                     47                     48
                      A                      A                      A
 Frequencies --   3844.2076              3844.2217              3844.2288
 Red. masses --      1.0841                 1.0841                 1.0841
 Frc consts  --      9.4393                 9.4394                 9.4394
 IR Inten    --      0.0001                 0.0003                 0.0010

                     49                     50                     51
                      A                      A                      A
 Frequencies --   3844.8041              3844.8208              3844.8269
 Red. masses --      1.0841                 1.0841                 1.0841
 Frc consts  --      9.4417                 9.4418                 9.4419
 IR Inten    --    378.3894               379.0853               378.5092

 - Thermochemistry -
 -------------------
 Temperature   298.150 Kelvin.  Pressure   1.00000 Atm.
 Atom     1 has atomic number 23 and mass  50.94396

 Molecular mass:   159.00735 amu.
 Principal axes and moments of inertia in atomic units:
                           1         2         3
     Eigenvalues --  1293.121481293.841921294.12662
           X            0.99997  -0.00779  -0.00126
           Y            0.00776   0.99974  -0.02158
           Z            0.00143   0.02157   0.99977
 This molecule is an asymmetric top.
 Rotational symmetry number  1.
 Warning -- assumption of classical behavior for rotation
           may cause significant error
 Rotational temperatures (Kelvin)      0.06698     0.06694     0.06693
 Rotational constants (GHZ):           1.39565     1.39487     1.39456
 Zero-point vibrational energy     394140.5 (Joules/Mol)
                                   94.20185 (Kcal/Mol)
 Warning -- explicit consideration of  33 degrees of freedom as
           vibrations may cause significant error
 Vibrational temperatures:    130.15   130.33   130.72   146.22   147.06
          (Kelvin)            147.55   199.29   199.47   199.68   307.10
                              307.70   387.40   387.85   388.27   438.90
                              439.07   490.52   514.61   514.81   515.02
                              518.95   519.74   520.17   553.71   553.77
                              553.96   573.87   792.96   793.13   793.35
                              843.35   843.44   843.72  2383.48  2383.54
                             2383.64  2385.98  2386.06  2394.20  5411.45
                             5411.47  5411.50  5411.52  5411.53  5419.77
                             5530.96  5530.98  5530.99  5531.82  5531.84
                             5531.85

 Zero-point correction=                           0.150120 (Hartree/Particle)
 Thermal correction to Energy=                    0.167523
 Thermal correction to Enthalpy=                  0.168467
 Thermal correction to Gibbs Free Energy=         0.107021
 Sum of electronic and zero-point Energies=          -1402.067218
 Sum of electronic and thermal Energies=             -1402.049815
 Sum of electronic and thermal Enthalpies=           -1402.048871
 Sum of electronic and thermal Free Energies=        -1402.110317

                     E (Thermal)             CV                S
                      KCal/Mol        Cal/Mol-Kelvin    Cal/Mol-Kelvin
 Total                  105.122             59.329            129.324
 Electronic               0.000              0.000              2.755
 Translational            0.889              2.981             41.100
 Rotational               0.889              2.981             29.161
 Vibrational            103.345             53.367             56.308
 Vibration     1          0.602              1.956              3.650
 Vibration     2          0.602              1.956              3.647
 Vibration     3          0.602              1.956              3.641
 Vibration     4          0.604              1.948              3.423
 Vibration     5          0.604              1.947              3.412
 Vibration     6          0.605              1.947              3.405
 Vibration     7          0.614              1.915              2.824
 Vibration     8          0.614              1.915              2.823
 Vibration     9          0.614              1.915              2.821
 Vibration    10          0.644              1.820              2.014
 Vibration    11          0.644              1.820              2.010
 Vibration    12          0.674              1.730              1.601
 Vibration    13          0.674              1.729              1.599
 Vibration    14          0.674              1.729              1.597
 Vibration    15          0.696              1.664              1.389
 Vibration    16          0.696              1.664              1.388
 Vibration    17          0.720              1.594              1.208
 Vibration    18          0.733              1.559              1.132
 Vibration    19          0.733              1.559              1.132
 Vibration    20          0.733              1.559              1.131
 Vibration    21          0.735              1.553              1.119
 Vibration    22          0.735              1.552              1.117
 Vibration    23          0.736              1.551              1.116
 Vibration    24          0.754              1.503              1.020
 Vibration    25          0.754              1.502              1.020
 Vibration    26          0.754              1.502              1.019
 Vibration    27          0.765              1.473              0.967
 Vibration    28          0.906              1.137              0.542
 Vibration    29          0.907              1.137              0.542
 Vibration    30          0.907              1.137              0.541
 Vibration    31          0.943              1.061              0.474
 Vibration    32          0.943              1.061              0.474
 Vibration    33          0.943              1.061              0.474

 Normal termination of Gaussian 16 at Thu May 23 18:12:08 2024.
 Gaussian 16:  ES64L-G16RevC.02  7-Dec-2021

 ----------------------------------------------------------------------
 #p B3LYP empiricaldispersion=gd3 scf=(maxcycles=500,xqc,maxconventiona
 l=50) scrf=(cpcm,solvent=water) geom=allcheck guess=read chkbasis
 ----------------------------------------------------------------------

 Structure from the checkpoint file:  "V_2_B3LYP.chk_solvated"
 -----
 Title
 -----
 Charge =  2 Multiplicity = 4

                         Standard orientation:
 ---------------------------------------------------------------------
 Center     Atomic      Atomic             Coordinates (Angstroms)
 Number     Number       Type             X           Y           Z
 ---------------------------------------------------------------------
      1         23           0       -0.000001    0.000001    0.000001
      2          8           0       -1.424099    0.006878   -1.618206
      3          1           0       -2.222598    0.549587   -1.678384
      4          8           0       -1.127178   -1.551940    0.983625
      5          1           0       -0.914212   -1.968615    1.830248
      6          8           0        1.162983   -1.495634   -1.028182
      7          1           0        1.879397   -1.333715   -1.657698
      8          8           0        1.424118   -0.006903    1.618189
      9          1           0        1.383999    0.530409    2.421579
     10          8           0        1.127157    1.551960   -0.983615
     11          1           0        0.914247    1.968552   -1.830294
     12          8           0       -1.162979    1.495636    1.028187
     13          1           0       -1.879352    1.333719    1.657750
     14          1           0       -1.066176    2.454747    0.947672
     15          1           0       -1.941205   -1.962971    0.660870
     16          1           0       -1.383983   -0.530496   -2.421554
     17          1           0        1.941107    1.963094   -0.660799
     18          1           0        1.066143   -2.454745   -0.947711
     19          1           0        2.222644   -0.549579    1.678305
 ---------------------------------------------------------------------

 SCF Done:  E(UB3LYP) =  -1402.49228773     A.U. after    9 cycles

 The electronic state is 4-A.
 Alpha  occ. eigenvalues -- -196.83585 -22.22941 -19.21416 -19.21416 -19.21416
 Alpha  occ. eigenvalues --  -19.21416 -19.21411 -19.21411 -18.73122 -18.73122
 Alpha  occ. eigenvalues --  -18.73121  -2.64634  -1.68128  -1.68126  -1.68126
 Alpha  occ. eigenvalues --   -1.07909  -1.07310  -1.07309  -1.07304  -1.07262
 Alpha  occ. eigenvalues --   -1.07259  -0.59268  -0.59267  -0.59263  -0.59162
 Alpha  occ. eigenvalues --   -0.59161  -0.59156  -0.51614  -0.48511  -0.48508
 Alpha  occ. eigenvalues --   -0.47641  -0.47637  -0.47632  -0.38750  -0.38749
 Alpha  occ. eigenvalues --   -0.38744  -0.38178  -0.38176  -0.38172  -0.21245
 Alpha  occ. eigenvalues --   -0.21243  -0.21242
 Alpha virt. eigenvalues --   -0.04868  -0.01569  -0.01569  -0.01235  -0.01232
 Alpha virt. eigenvalues --   -0.01230   0.03320   0.05996   0.05998   0.08641
 Alpha virt. eigenvalues --    0.08645   0.08646   0.08795   0.08795   0.08797

  Beta  occ. eigenvalues -- -196.83552 -22.19327 -19.21402 -19.21402 -19.21401
  Beta  occ. eigenvalues --  -19.21401 -19.21397 -19.21397 -18.70076 -18.70075
  Beta  occ. eigenvalues --  -18.70075  -2.53199  -1.56020  -1.56018  -1.56017
  Beta  occ. eigenvalues --   -1.07831  -1.07219  -1.07218  -1.07213  -1.07199
  Beta  occ. eigenvalues --   -1.07196  -0.59171  -0.59170  -0.59166  -0.59107
  Beta  occ. eigenvalues --   -0.59106  -0.59102  -0.51299  -0.48369  -0.48366
  Beta  occ. eigenvalues --   -0.47589  -0.47585  -0.47580  -0.38234  -0.38233
  Beta  occ. eigenvalues --   -0.38228  -0.37963  -0.37961  -0.37956
  Beta virt. eigenvalues --   -0.04743  -0.01198  -0.01194  -0.01193   0.00538
  Beta virt. eigenvalues --    0.00541   0.00543   0.01441   0.01443   0.03404
  Beta virt. eigenvalues --    0.07626   0.07628   0.08733   0.08736   0.08737

 Mulliken charges and spin densities:
               1          2
     1  V    1.423560   3.021994
     2  O   -0.725367  -0.006832
     3  H    0.410719   0.001588
     4  O   -0.725459  -0.006849
     5  H    0.410759   0.001586
     6  O   -0.725435  -0.006844
     7  H    0.410709   0.001588
     8  O   -0.725366  -0.006832
     9  H    0.410767   0.001588
    10  O   -0.725459  -0.006849
    11  H    0.410759   0.001586
    12  O   -0.725430  -0.006844
    13  H    0.410708   0.001588
    14  H    0.410775   0.001588
    15  H    0.410749   0.001590
    16  H    0.410766   0.001588
    17  H    0.410749   0.001590
    18  H    0.410776   0.001588
    19  H    0.410719   0.001588
 Sum of Mulliken charges =   2.00000   3.00000

 Dipole moment (field-independent basis, Debye):
    X=              0.0000    Y=             -0.0000    Z=             -0.0000  Tot=              0.0000
 Quadrupole moment (field-independent basis, Debye-Ang):
   XX=            -16.1355   YY=            -16.1245   ZZ=            -16.1235
   XY=             -0.0028   XZ=              0.0035   YZ=             -0.0025

 Normal termination of Gaussian 16 at Thu May 23 18:12:26 2024.
