 Gaussian 16, Revision C.02,

 ----------------------------------------------------------------------
 #p HSEH1PBE 6-31+G(2df,p) opt=(cartesian,calcall,maxcycles=500) freq s
 cf=(maxcycles=500,xqc,maxconventional=50)
 ----------------------------------------------------------------------

 -----
 Title
 -----
 Symbolic Z-matrix:
 Charge =  2 Multiplicity = 4

 SCF Done:  E(UHSEH1PBE) =  -1401.27748750     A.U. after   16 cycles
 SCF Done:  E(UHSEH1PBE) =  -1401.31201934     A.U. after   14 cycles
 SCF Done:  E(UHSEH1PBE) =  -1401.36838429     A.U. after   15 cycles
 SCF Done:  E(UHSEH1PBE) =  -1401.42750535     A.U. after   16 cycles
 SCF Done:  E(UHSEH1PBE) =  -1401.44350126     A.U. after   17 cycles
 SCF Done:  E(UHSEH1PBE) =  -1401.46431831     A.U. after   15 cycles
 SCF Done:  E(UHSEH1PBE) =  -1401.49891552     A.U. after   16 cycles
 SCF Done:  E(UHSEH1PBE) =  -1401.51855761     A.U. after   15 cycles
 SCF Done:  E(UHSEH1PBE) =  -1401.52721841     A.U. after   15 cycles
 SCF Done:  E(UHSEH1PBE) =  -1401.53137289     A.U. after   15 cycles
 SCF Done:  E(UHSEH1PBE) =  -1401.53554733     A.U. after    9 cycles
 SCF Done:  E(UHSEH1PBE) =  -1401.53555363     A.U. after   11 cycles
 SCF Done:  E(UHSEH1PBE) =  -1401.53554864     A.U. after   10 cycles
 SCF Done:  E(UHSEH1PBE) =  -1401.53554971     A.U. after   10 cycles
 SCF Done:  E(UHSEH1PBE) =  -1401.53555369     A.U. after    3 cycles
 SCF Done:  E(UHSEH1PBE) =  -1401.53554815     A.U. after   10 cycles
 SCF Done:  E(UHSEH1PBE) =  -1401.53555345     A.U. after    9 cycles
 SCF Done:  E(UHSEH1PBE) =  -1401.53555337     A.U. after    4 cycles
 Optimization completed.
    -- Stationary point found.
 Normal termination of Gaussian 16 at Thu May 23 19:24:02 2024.

 ----------------------------------------------------------------------
 #P Geom=AllCheck Guess=TCheck SCRF=Check GenChk UHSEH1PBE/6-31+G(2df,p
 ) Freq
 ----------------------------------------------------------------------

 Structure from the checkpoint file:  "V_2_HSE06.chk"
 -----
 Title
 -----
 Charge =  2 Multiplicity = 4

 SCF Done:  E(UHSEH1PBE) =  -1401.53555337     A.U. after    1 cycles

  Exact polarizability:      56.347      -0.002      55.960       0.002      -0.011      55.964
 Approx polarizability:      69.317      -0.003      70.440       0.021      -0.026      70.448

                      1                      2                      3
                      A                      A                      A
 Frequencies --     92.2465                93.3177               104.9299
 Red. masses --      2.3641                 2.4638                 4.2246
 Frc consts  --      0.0119                 0.0126                 0.0274
 IR Inten    --      0.3547                 0.2806                 0.0052

                      4                      5                      6
                      A                      A                      A
 Frequencies --    116.0552               122.3968               122.8058
 Red. masses --      4.1786                 4.8551                 4.9464
 Frc consts  --      0.0332                 0.0429                 0.0440
 IR Inten    --      0.0120                 0.0067                 0.0522

                      7                      8                      9
                      A                      A                      A
 Frequencies --    135.1391               135.7883               145.9776
 Red. masses --      1.7357                 1.8604                 4.2270
 Frc consts  --      0.0187                 0.0202                 0.0531
 IR Inten    --      7.0936                 7.1801                 2.9068

                     10                     11                     12
                      A                      A                      A
 Frequencies --    152.0837               153.7112               194.6777
 Red. masses --      1.7415                 1.6013                 1.2467
 Frc consts  --      0.0237                 0.0223                 0.0278
 IR Inten    --      0.2009                 0.0414                30.0208

                     13                     14                     15
                      A                      A                      A
 Frequencies --    196.3189               263.4985               296.2968
 Red. masses --      1.2395                 1.1003                 1.1219
 Frc consts  --      0.0281                 0.0450                 0.0580
 IR Inten    --     30.3951                 0.0895               169.3340

                     16                     17                     18
                      A                      A                      A
 Frequencies --    299.5118               299.6588               337.1260
 Red. masses --      5.4463                 5.4572                 5.5438
 Frc consts  --      0.2879                 0.2887                 0.3712
 IR Inten    --      0.6042                 0.7551                 0.0007

                     19                     20                     21
                      A                      A                      A
 Frequencies --    353.8853               355.0255               368.9041
 Red. masses --      1.3918                 1.4092                 3.2649
 Frc consts  --      0.1027                 0.1046                 0.2618
 IR Inten    --    111.0611               104.2103                29.8591

                     22                     23                     24
                      A                      A                      A
 Frequencies --    369.4252               374.8846               426.1263
 Red. masses --      3.1122                 3.7255                 1.1688
 Frc consts  --      0.2502                 0.3085                 0.1250
 IR Inten    --     37.1381                18.4541               456.6386

                     25                     26                     27
                      A                      A                      A
 Frequencies --    441.6933               449.2214               449.7250
 Red. masses --      1.1017                 1.1465                 1.1477
 Frc consts  --      0.1266                 0.1363                 0.1368
 IR Inten    --      0.7138               213.0329               214.5142

                     28                     29                     30
                      A                      A                      A
 Frequencies --    517.8587               518.6990               567.9787
 Red. masses --      1.1581                 1.1601                 1.1566
 Frc consts  --      0.1830                 0.1839                 0.2198
 IR Inten    --      2.5747                 4.0525                 0.0497

                     31                     32                     33
                      A                      A                      A
 Frequencies --    574.3010               595.5029               596.3661
 Red. masses --      1.3152                 1.2036                 1.2025
 Frc consts  --      0.2556                 0.2515                 0.2520
 IR Inten    --    188.6761               170.8625               171.1066

                     34                     35                     36
                      A                      A                      A
 Frequencies --   1659.3736              1660.9188              1661.0192
 Red. masses --      1.0881                 1.0875                 1.0875
 Frc consts  --      1.7652                 1.7675                 1.7678
 IR Inten    --    178.6894               109.4933               108.5519

                     37                     38                     39
                      A                      A                      A
 Frequencies --   1671.5190              1671.6698              1679.2836
 Red. masses --      1.0864                 1.0864                 1.0825
 Frc consts  --      1.7885                 1.7888                 1.7985
 IR Inten    --    155.9255               157.4315                 0.0043

                     40                     41                     42
                      A                      A                      A
 Frequencies --   3801.9184              3803.7779              3804.1894
 Red. masses --      1.0453                 1.0451                 1.0451
 Frc consts  --      8.9020                 8.9089                 8.9108
 IR Inten    --    240.1241                12.6094                13.5499

                     43                     44                     45
                      A                      A                      A
 Frequencies --   3805.7524              3805.9729              3810.2437
 Red. masses --      1.0450                 1.0450                 1.0459
 Frc consts  --      8.9175                 8.9185                 8.9462
 IR Inten    --    220.9891               229.7100                 1.2407

                     46                     47                     48
                      A                      A                      A
 Frequencies --   3887.2639              3887.6556              3889.0837
 Red. masses --      1.0833                 1.0834                 1.0834
 Frc consts  --      9.6451                 9.6471                 9.6543
 IR Inten    --      6.9384                 9.6262               269.3853

                     49                     50                     51
                      A                      A                      A
 Frequencies --   3889.6075              3890.6269              3891.0849
 Red. masses --      1.0832                 1.0834                 1.0834
 Frc consts  --      9.6557                 9.6623                 9.6647
 IR Inten    --     36.2135               427.6978               425.1559

 - Thermochemistry -
 -------------------
 Temperature   298.150 Kelvin.  Pressure   1.00000 Atm.
 Atom     1 has atomic number 23 and mass  50.94396

 Molecular mass:   159.00735 amu.
 Principal axes and moments of inertia in atomic units:
                           1         2         3
     Eigenvalues --  1181.707211336.029481336.66059
           X            1.00000  -0.00015   0.00010
           Y            0.00016   0.99513  -0.09855
           Z           -0.00008   0.09855   0.99513
 This molecule is an asymmetric top.
 Rotational symmetry number  1.
 Warning -- assumption of classical behavior for rotation
           may cause significant error
 Rotational temperatures (Kelvin)      0.07330     0.06483     0.06480
 Rotational constants (GHZ):           1.52723     1.35082     1.35019
 Zero-point vibrational energy     397112.9 (Joules/Mol)
                                   94.91227 (Kcal/Mol)
 Warning -- explicit consideration of  33 degrees of freedom as
           vibrations may cause significant error
 Vibrational temperatures:    132.72   134.26   150.97   166.98   176.10
          (Kelvin)            176.69   194.44   195.37   210.03   218.81
                              221.16   280.10   282.46   379.12   426.31
                              430.93   431.14   485.05   509.16   510.80
                              530.77   531.52   539.38   613.10   635.50
                              646.33   647.05   745.08   746.29   817.19
                              826.29   856.80   858.04  2387.47  2389.69
                             2389.84  2404.94  2405.16  2416.11  5470.11
                             5472.79  5473.38  5475.63  5475.95  5482.09
                             5592.91  5593.47  5595.52  5596.28  5597.74
                             5598.40

 Zero-point correction=                           0.151252 (Hartree/Particle)
 Thermal correction to Energy=                    0.168833
 Thermal correction to Enthalpy=                  0.169777
 Thermal correction to Gibbs Free Energy=         0.107990
 Sum of electronic and zero-point Energies=          -1401.384301
 Sum of electronic and thermal Energies=             -1401.366720
 Sum of electronic and thermal Enthalpies=           -1401.365776
 Sum of electronic and thermal Free Energies=        -1401.427563

                     E (Thermal)             CV                S
                      KCal/Mol        Cal/Mol-Kelvin    Cal/Mol-Kelvin
 Total                  105.944             59.395            130.042
 Electronic               0.000              0.000              2.755
 Translational            0.889              2.981             41.100
 Rotational               0.889              2.981             29.136
 Vibrational            104.167             53.434             57.051
 Vibration     1          0.602              1.955              3.612
 Vibration     2          0.602              1.954              3.589
 Vibration     3          0.605              1.945              3.361
 Vibration     4          0.608              1.936              3.165
 Vibration     5          0.610              1.930              3.062
 Vibration     6          0.610              1.930              3.056
 Vibration     7          0.613              1.918              2.872
 Vibration     8          0.614              1.918              2.862
 Vibration     9          0.617              1.907              2.724
 Vibration    10          0.619              1.900              2.646
 Vibration    11          0.619              1.899              2.626
 Vibration    12          0.635              1.847              2.183
 Vibration    13          0.636              1.845              2.167
 Vibration    14          0.670              1.740              1.638
 Vibration    15          0.690              1.681              1.438
 Vibration    16          0.692              1.675              1.420
 Vibration    17          0.692              1.674              1.419
 Vibration    18          0.718              1.601              1.226
 Vibration    19          0.730              1.567              1.149
 Vibration    20          0.731              1.565              1.144
 Vibration    21          0.741              1.536              1.084
 Vibration    22          0.742              1.535              1.082
 Vibration    23          0.746              1.524              1.060
 Vibration    24          0.788              1.413              0.871
 Vibration    25          0.801              1.379              0.821
 Vibration    26          0.808              1.363              0.798
 Vibration    27          0.809              1.361              0.797
 Vibration    28          0.873              1.210              0.615
 Vibration    29          0.874              1.209              0.613
 Vibration    30          0.924              1.101              0.508
 Vibration    31          0.931              1.087              0.496
 Vibration    32          0.953              1.041              0.457
 Vibration    33          0.954              1.040              0.456

 Normal termination of Gaussian 16 at Thu May 23 19:26:28 2024.
 Gaussian 16:  ES64L-G16RevC.02  7-Dec-2021

 ----------------------------------------------------------------------
 #p HSEH1PBE scf=(maxcycles=500,xqc,maxconventional=50) scrf=(cpcm,solv
 ent=water) geom=allcheck guess=read chkbasis
 ----------------------------------------------------------------------

 Structure from the checkpoint file:  "V_2_HSE06.chk_solvated"
 -----
 Title
 -----
 Charge =  2 Multiplicity = 4

                         Standard orientation:
 ---------------------------------------------------------------------
 Center     Atomic      Atomic             Coordinates (Angstroms)
 Number     Number       Type             X           Y           Z
 ---------------------------------------------------------------------
      1         23           0        0.000017    0.000544   -0.000147
      2          8           0        1.344393   -1.470892   -0.809063
      3          1           0        1.190940   -2.406433   -0.984313
      4          8           0        1.351573    0.036426    1.672865
      5          1           0        1.203528    0.354928    2.570681
      6          8           0        1.348564    1.432345   -0.871406
      7          1           0        1.203853    2.043685   -1.602708
      8          8           0       -1.346652    1.473524    0.802466
      9          1           0       -2.057527    1.824816    0.252375
     10          8           0       -1.353125   -0.043203   -1.672024
     11          1           0       -2.056277   -0.703535   -1.703582
     12          8           0       -1.344821   -1.430175    0.877746
     13          1           0       -1.187466   -2.353352    1.106966
     14          1           0       -2.061795   -1.127687    1.448690
     15          1           0        2.063535   -0.612635    1.729568
     16          1           0        2.055583   -1.197431   -1.401363
     17          1           0       -1.212481    0.246114   -2.580879
     18          1           0        2.056279    1.812380   -0.336505
     19          1           0       -1.198021    2.122432    1.499774
 ---------------------------------------------------------------------

 SCF Done:  E(UHSEH1PBE) =  -1401.81460899     A.U. after   10 cycles

 The electronic state is 4-A.
 Alpha  occ. eigenvalues -- -197.07733 -22.31536 -19.27351 -19.27349 -19.27346
 Alpha  occ. eigenvalues --  -19.27345 -19.27343 -19.27342 -18.78017 -18.77973
 Alpha  occ. eigenvalues --  -18.77972  -2.67485  -1.69682  -1.69568  -1.69566
 Alpha  occ. eigenvalues --   -1.09095  -1.08587  -1.08345  -1.08343  -1.08326
 Alpha  occ. eigenvalues --   -1.08324  -0.59599  -0.59261  -0.59250  -0.59129
 Alpha  occ. eigenvalues --   -0.58534  -0.58521  -0.51509  -0.48360  -0.48358
 Alpha  occ. eigenvalues --   -0.48067  -0.47135  -0.47126  -0.39730  -0.39716
 Alpha  occ. eigenvalues --   -0.38825  -0.37488  -0.37476  -0.36927  -0.21513
 Alpha  occ. eigenvalues --   -0.21177  -0.21167
 Alpha virt. eigenvalues --   -0.04926  -0.01524  -0.01522  -0.01288  -0.01118
 Alpha virt. eigenvalues --   -0.01114   0.03501   0.06190   0.06194   0.08209
 Alpha virt. eigenvalues --    0.08317   0.08340   0.09191   0.10365   0.10380

  Beta  occ. eigenvalues -- -197.07723 -22.27872 -19.27357 -19.27355 -19.27351
  Beta  occ. eigenvalues --  -19.27350 -19.27348 -19.27348 -18.74951 -18.74801
  Beta  occ. eigenvalues --  -18.74800  -2.55485  -1.56940  -1.56463  -1.56461
  Beta  occ. eigenvalues --   -1.09036  -1.08519  -1.08311  -1.08309  -1.08266
  Beta  occ. eigenvalues --   -1.08264  -0.59453  -0.59145  -0.59134  -0.59059
  Beta  occ. eigenvalues --   -0.58486  -0.58473  -0.51066  -0.48187  -0.48186
  Beta  occ. eigenvalues --   -0.47975  -0.47082  -0.47074  -0.39210  -0.39196
  Beta  occ. eigenvalues --   -0.38365  -0.37306  -0.37294  -0.36785
  Beta virt. eigenvalues --   -0.04708  -0.01184  -0.01057  -0.01053   0.00557
  Beta virt. eigenvalues --    0.01266   0.01275   0.01849   0.01851   0.03679
  Beta virt. eigenvalues --    0.07752   0.07756   0.08393   0.08585   0.08607

 Mulliken charges and spin densities:
               1          2
     1  V    1.381704   3.076834
     2  O   -0.740055  -0.016723
     3  H    0.423808   0.001324
     4  O   -0.740071  -0.016797
     5  H    0.423904   0.001322
     6  O   -0.740204  -0.016654
     7  H    0.424137   0.001319
     8  O   -0.740015  -0.016637
     9  H    0.419165   0.002591
    10  O   -0.740470  -0.016723
    11  H    0.419127   0.002581
    12  O   -0.739858  -0.016784
    13  H    0.423636   0.001332
    14  H    0.419400   0.002607
    15  H    0.419239   0.002593
    16  H    0.419300   0.002596
    17  H    0.424221   0.001316
    18  H    0.419103   0.002583
    19  H    0.423930   0.001319
 Sum of Mulliken charges =   2.00000   3.00000

 Dipole moment (field-independent basis, Debye):
    X=              0.0002    Y=              0.0141    Z=             -0.0053  Tot=              0.0150
 Quadrupole moment (field-independent basis, Debye-Ang):
   XX=            -17.8239   YY=            -16.2343   ZZ=            -16.1428
   XY=             -0.0154   XZ=              0.0246   YZ=             -0.0568

 Normal termination of Gaussian 16 at Thu May 23 19:27:25 2024.
