 Gaussian 16, Revision C.02,

 ----------------------------------------------------------------------
 #p HSEH1PBE 6-31+G(2df,p) opt=(cartesian,calcall,maxcycles=500) freq s
 cf=(maxcycles=500,xqc,maxconventional=50)
 ----------------------------------------------------------------------

 -----
 Title
 -----
 Symbolic Z-matrix:
 Charge =  2 Multiplicity = 3

 SCF Done:  E(UHSEH1PBE) =  -1306.69863598     A.U. after   28 cycles
 SCF Done:  E(UHSEH1PBE) =  -1306.74301408     A.U. after   24 cycles
 SCF Done:  E(UHSEH1PBE) =  -1306.81563573     A.U. after   21 cycles
 SCF Done:  E(UHSEH1PBE) =  -1306.88815045     A.U. after   23 cycles
 SCF Done:  E(UHSEH1PBE) =  -1306.90483722     A.U. after   23 cycles
 SCF Done:  E(UHSEH1PBE) =  -1306.91258496     A.U. after   20 cycles
 SCF Done:  E(UHSEH1PBE) =  -1306.93708103     A.U. after   20 cycles
 SCF Done:  E(UHSEH1PBE) =  -1306.96485266     A.U. after   21 cycles
 SCF Done:  E(UHSEH1PBE) =  -1306.97980884     A.U. after   22 cycles
 SCF Done:  E(UHSEH1PBE) =  -1306.99614775     A.U. after   23 cycles
 SCF Done:  E(UHSEH1PBE) =  -1307.01850093     A.U. after   21 cycles
 SCF Done:  E(UHSEH1PBE) =  -1307.01855224     A.U. after   15 cycles
 SCF Done:  E(UHSEH1PBE) =  -1307.01855470     A.U. after   15 cycles
 SCF Done:  E(UHSEH1PBE) =  -1307.01856088     A.U. after   14 cycles
 SCF Done:  E(UHSEH1PBE) =  -1307.01855559     A.U. after   13 cycles
 SCF Done:  E(UHSEH1PBE) =  -1307.01856342     A.U. after   13 cycles
 SCF Done:  E(UHSEH1PBE) =  -1307.01856111     A.U. after   13 cycles
 SCF Done:  E(UHSEH1PBE) =  -1307.01856293     A.U. after   13 cycles
 Optimization completed.
    -- Stationary point found.
 Normal termination of Gaussian 16 at Thu May 23 19:28:33 2024.

 ----------------------------------------------------------------------
 #P Geom=AllCheck Guess=TCheck SCRF=Check GenChk UHSEH1PBE/6-31+G(2df,p
 ) Freq
 ----------------------------------------------------------------------

 Structure from the checkpoint file:  "Ti_2_HSE06.chk"
 -----
 Title
 -----
 Charge =  2 Multiplicity = 3

 SCF Done:  E(UHSEH1PBE) =  -1307.01856293     A.U. after    1 cycles

  Exact polarizability:      58.189       0.001      58.178       0.008      -0.016      55.359
 Approx polarizability:      72.839       0.001      72.844       0.016      -0.039      67.718

                      1                      2                      3
                      A                      A                      A
 Frequencies --     76.2068                76.7822                84.9484
 Red. masses --      5.3575                 5.3434                 4.6760
 Frc consts  --      0.0183                 0.0186                 0.0199
 IR Inten    --      3.0497                 3.0037                 0.0028

                      4                      5                      6
                      A                      A                      A
 Frequencies --     85.5934                95.6907               103.4109
 Red. masses --      4.6808                 5.5622                 5.2746
 Frc consts  --      0.0202                 0.0300                 0.0332
 IR Inten    --      0.0025                 0.0000                 2.8854

                      7                      8                      9
                      A                      A                      A
 Frequencies --    117.4965               117.6291               118.5586
 Red. masses --      2.9902                 3.0126                 4.1136
 Frc consts  --      0.0243                 0.0246                 0.0341
 IR Inten    --      0.4998                 0.5495                 1.8406

                     10                     11                     12
                      A                      A                      A
 Frequencies --    200.7514               202.0994               207.1998
 Red. masses --      1.4020                 1.4150                 1.1894
 Frc consts  --      0.0333                 0.0341                 0.0301
 IR Inten    --      0.0134                 0.0250                13.7985

                     13                     14                     15
                      A                      A                      A
 Frequencies --    207.7995               233.7769               291.2807
 Red. masses --      1.1869                 1.0192                 2.3254
 Frc consts  --      0.0302                 0.0328                 0.1162
 IR Inten    --     13.5120                 0.0018                 0.0002

                     16                     17                     18
                      A                      A                      A
 Frequencies --    291.5278               320.9485               335.7854
 Red. masses --      2.2930                 5.6871                 2.4026
 Frc consts  --      0.1148                 0.3452                 0.1596
 IR Inten    --      0.0001                 0.0001                46.7391

                     19                     20                     21
                      A                      A                      A
 Frequencies --    358.0299               358.1701               360.0804
 Red. masses --      3.6004                 3.5781                 1.1325
 Frc consts  --      0.2719                 0.2704                 0.0865
 IR Inten    --     24.6323                25.3697                 0.0067

                     22                     23                     24
                      A                      A                      A
 Frequencies --    360.2813               365.8592               394.1004
 Red. masses --      1.1325                 1.1932                 1.2191
 Frc consts  --      0.0866                 0.0941                 0.1116
 IR Inten    --      0.0207                13.2501               292.2547

                     25                     26                     27
                      A                      A                      A
 Frequencies --    394.2060               407.0662               412.6611
 Red. masses --      1.2169                 1.1144                 1.3379
 Frc consts  --      0.1114                 0.1088                 0.1342
 IR Inten    --    292.7688                 0.0202               567.7146

                     28                     29                     30
                      A                      A                      A
 Frequencies --    487.1362               532.1417               534.5864
 Red. masses --      1.1410                 1.2391                 1.1433
 Frc consts  --      0.1595                 0.2067                 0.1925
 IR Inten    --      0.0015               175.1358                 0.0489

                     31                     32                     33
                      A                      A                      A
 Frequencies --    535.0242               563.0033               563.3322
 Red. masses --      1.1428                 1.2834                 1.2822
 Frc consts  --      0.1927                 0.2397                 0.2397
 IR Inten    --      0.1138               251.0692               250.3170

                     34                     35                     36
                      A                      A                      A
 Frequencies --   1663.2496              1663.2925              1663.7416
 Red. masses --      1.0883                 1.0883                 1.0888
 Frc consts  --      1.7739                 1.7740                 1.7758
 IR Inten    --    221.6593               221.4450                 0.5606

                     37                     38                     39
                      A                      A                      A
 Frequencies --   1663.7716              1666.1811              1672.9229
 Red. masses --      1.0888                 1.0880                 1.0832
 Frc consts  --      1.7758                 1.7796                 1.7861
 IR Inten    --      0.3631               249.3278                 0.0030

                     40                     41                     42
                      A                      A                      A
 Frequencies --   3806.7654              3806.8124              3808.1825
 Red. masses --      1.0444                 1.0444                 1.0447
 Frc consts  --      8.9175                 8.9177                 8.9266
 IR Inten    --      0.0789                 0.1565               239.2628

                     43                     44                     45
                      A                      A                      A
 Frequencies --   3808.2254              3809.6322              3814.6145
 Red. masses --      1.0447                 1.0447                 1.0454
 Frc consts  --      8.9268                 8.9329                 8.9626
 IR Inten    --    238.1738               231.4497                 0.0068

                     46                     47                     48
                      A                      A                      A
 Frequencies --   3892.1229              3892.3544              3892.9812
 Red. masses --      1.0837                 1.0836                 1.0838
 Frc consts  --      9.6723                 9.6729                 9.6777
 IR Inten    --      0.6920               224.7422                 0.8846

                     49                     50                     51
                      A                      A                      A
 Frequencies --   3892.9962              3893.9198              3893.9277
 Red. masses --      1.0838                 1.0837                 1.0837
 Frc consts  --      9.6777                 9.6814                 9.6814
 IR Inten    --      2.0929               467.1319               469.0955

 - Thermochemistry -
 -------------------
 Temperature   298.150 Kelvin.  Pressure   1.00000 Atm.
 Atom     1 has atomic number 22 and mass  47.94795

 Molecular mass:   156.01133 amu.
 Principal axes and moments of inertia in atomic units:
                           1         2         3
     Eigenvalues --  1321.048131322.514061388.94412
           X            0.99999   0.00427   0.00017
           Y           -0.00427   0.99999  -0.00014
           Z           -0.00017   0.00014   1.00000
 This molecule is an asymmetric top.
 Rotational symmetry number  1.
 Warning -- assumption of classical behavior for rotation
           may cause significant error
 Rotational temperatures (Kelvin)      0.06556     0.06549     0.06236
 Rotational constants (GHZ):           1.36614     1.36463     1.29936
 Zero-point vibrational energy     394760.8 (Joules/Mol)
                                   94.35010 (Kcal/Mol)
 Warning -- explicit consideration of  33 degrees of freedom as
           vibrations may cause significant error
 Vibrational temperatures:    109.64   110.47   122.22   123.15   137.68
          (Kelvin)            148.79   169.05   169.24   170.58   288.84
                              290.78   298.11   298.98   336.35   419.09
                              419.44   461.77   483.12   515.13   515.33
                              518.08   518.36   526.39   567.02   567.17
                              585.68   593.73   700.88   765.63   769.15
                              769.78   810.04   810.51  2393.05  2393.11
                             2393.75  2393.80  2397.26  2406.96  5477.09
                             5477.15  5479.13  5479.19  5481.21  5488.38
                             5599.90  5600.23  5601.13  5601.15  5602.48
                             5602.49

 Zero-point correction=                           0.150356 (Hartree/Particle)
 Thermal correction to Energy=                    0.168400
 Thermal correction to Enthalpy=                  0.169345
 Thermal correction to Gibbs Free Energy=         0.106183
 Sum of electronic and zero-point Energies=          -1306.868206
 Sum of electronic and thermal Energies=             -1306.850163
 Sum of electronic and thermal Enthalpies=           -1306.849218
 Sum of electronic and thermal Free Energies=        -1306.912379

                     E (Thermal)             CV                S
                      KCal/Mol        Cal/Mol-Kelvin    Cal/Mol-Kelvin
 Total                  105.673             60.158            132.934
 Electronic               0.000              0.000              2.183
 Translational            0.889              2.981             41.044
 Rotational               0.889              2.981             29.274
 Vibrational            103.895             54.197             60.432
 Vibration     1          0.599              1.965              3.986
 Vibration     2          0.599              1.965              3.971
 Vibration     3          0.601              1.960              3.773
 Vibration     4          0.601              1.959              3.758
 Vibration     5          0.603              1.952              3.540
 Vibration     6          0.605              1.946              3.389
 Vibration     7          0.608              1.935              3.141
 Vibration     8          0.608              1.935              3.139
 Vibration     9          0.609              1.934              3.124
 Vibration    10          0.638              1.839              2.126
 Vibration    11          0.639              1.837              2.114
 Vibration    12          0.641              1.830              2.068
 Vibration    13          0.641              1.829              2.063
 Vibration    14          0.654              1.789              1.850
 Vibration    15          0.687              1.690              1.467
 Vibration    16          0.687              1.690              1.465
 Vibration    17          0.706              1.633              1.305
 Vibration    18          0.717              1.604              1.232
 Vibration    19          0.733              1.559              1.131
 Vibration    20          0.733              1.558              1.130
 Vibration    21          0.735              1.555              1.122
 Vibration    22          0.735              1.554              1.121
 Vibration    23          0.739              1.543              1.097
 Vibration    24          0.761              1.483              0.985
 Vibration    25          0.761              1.483              0.984
 Vibration    26          0.772              1.455              0.937
 Vibration    27          0.776              1.443              0.917
 Vibration    28          0.843              1.279              0.691
 Vibration    29          0.887              1.179              0.582
 Vibration    30          0.890              1.174              0.577
 Vibration    31          0.890              1.173              0.576
 Vibration    32          0.919              1.111              0.518
 Vibration    33          0.919              1.111              0.517

 Normal termination of Gaussian 16 at Thu May 23 19:30:57 2024.
 Gaussian 16:  ES64L-G16RevC.02  7-Dec-2021

 ----------------------------------------------------------------------
 #p HSEH1PBE scf=(maxcycles=500,xqc,maxconventional=50) scrf=(cpcm,solv
 ent=water) geom=allcheck guess=read chkbasis
 ----------------------------------------------------------------------

 Structure from the checkpoint file:  "Ti_2_HSE06.chk_solvated"
 -----
 Title
 -----
 Charge =  2 Multiplicity = 3

                         Standard orientation:
 ---------------------------------------------------------------------
 Center     Atomic      Atomic             Coordinates (Angstroms)
 Number     Number       Type             X           Y           Z
 ---------------------------------------------------------------------
      1         22           0       -0.000220    0.000097    0.000024
      2          8           0        1.714819   -0.612121    1.233531
      3          1           0        2.170185   -0.084574    1.899854
      4          8           0        0.323855   -1.805760   -1.212985
      5          1           0       -0.242243   -2.586117   -1.236728
      6          8           0       -1.401211   -1.165253    1.231338
      7          1           0       -2.359966   -1.063972    1.254290
      8          8           0       -1.712063    0.611562   -1.238057
      9          1           0       -2.105422    1.491336   -1.273498
     10          8           0       -0.325319    1.803871    1.215549
     11          1           0        0.239156    2.585389    1.239640
     12          8           0        1.400402    1.167779   -1.229416
     13          1           0        2.359380    1.068331   -1.250758
     14          1           0        1.178716    1.821048   -1.903015
     15          1           0        1.008694   -1.945258   -1.877211
     16          1           0        2.107835   -1.492128    1.266827
     17          1           0       -1.009319    1.940753    1.881180
     18          1           0       -1.179869   -1.820231    1.903396
     19          1           0       -2.166171    0.082673   -1.904183
 ---------------------------------------------------------------------

 SCF Done:  E(UHSEH1PBE) =  -1307.29289919     A.U. after   16 cycles

 The electronic state is 3-A.
 Alpha  occ. eigenvalues -- -179.03672 -19.92191 -19.27044 -19.27042 -19.27042
 Alpha  occ. eigenvalues --  -19.27040 -19.27040 -19.27037 -16.60288 -16.59736
 Alpha  occ. eigenvalues --  -16.59735  -2.37343  -1.47724  -1.47680  -1.47679
 Alpha  occ. eigenvalues --   -1.08625  -1.08098  -1.08096  -1.08073  -1.08072
 Alpha  occ. eigenvalues --   -1.08010  -0.59008  -0.59004  -0.58737  -0.58733
 Alpha  occ. eigenvalues --   -0.58627  -0.58354  -0.50692  -0.48021  -0.48018
 Alpha  occ. eigenvalues --   -0.47160  -0.47156  -0.46863  -0.38767  -0.37844
 Alpha  occ. eigenvalues --   -0.37677  -0.37675  -0.37533  -0.37528  -0.16430
 Alpha  occ. eigenvalues --   -0.16427
 Alpha virt. eigenvalues --   -0.04842  -0.03491  -0.01339  -0.01339  -0.01141
 Alpha virt. eigenvalues --    0.00827   0.00827   0.03257   0.06967   0.06968
 Alpha virt. eigenvalues --    0.08551   0.08562   0.08615   0.08619   0.09078

  Beta  occ. eigenvalues -- -179.03675 -19.90198 -19.27047 -19.27045 -19.27045
  Beta  occ. eigenvalues --  -19.27043 -19.27043 -19.27039 -16.58940 -16.57832
  Beta  occ. eigenvalues --  -16.57832  -2.30158  -1.41756  -1.38930  -1.38930
  Beta  occ. eigenvalues --   -1.08576  -1.08066  -1.08064  -1.07994  -1.07992
  Beta  occ. eigenvalues --   -1.07954  -0.58897  -0.58894  -0.58678  -0.58674
  Beta  occ. eigenvalues --   -0.58579  -0.58308  -0.50374  -0.47904  -0.47900
  Beta  occ. eigenvalues --   -0.47067  -0.47063  -0.46825  -0.38606  -0.37740
  Beta  occ. eigenvalues --   -0.37418  -0.37413  -0.37376  -0.37373
  Beta virt. eigenvalues --   -0.04656  -0.01245  -0.01245  -0.01073  -0.00435
  Beta virt. eigenvalues --    0.01931   0.01935   0.02245   0.02248   0.03374
  Beta virt. eigenvalues --    0.08603   0.08609   0.08737   0.08741   0.08866

 Mulliken charges and spin densities:
               1          2
     1  Ti   1.325941   2.065361
     2  O   -0.724122  -0.014481
     3  H    0.420376   0.001066
     4  O   -0.724500  -0.014463
     5  H    0.416197   0.002474
     6  O   -0.724428  -0.014422
     7  H    0.416229   0.002487
     8  O   -0.724007  -0.014485
     9  H    0.416211   0.002480
    10  O   -0.724025  -0.014443
    11  H    0.416203   0.002482
    12  O   -0.724107  -0.014397
    13  H    0.416149   0.002496
    14  H    0.420370   0.001058
    15  H    0.420343   0.001081
    16  H    0.416123   0.002479
    17  H    0.420284   0.001072
    18  H    0.420409   0.001078
    19  H    0.420355   0.001077
 Sum of Mulliken charges =   2.00000   2.00000

 Dipole moment (field-independent basis, Debye):
    X=             -0.0021    Y=             -0.0047    Z=             -0.0002  Tot=              0.0052
 Quadrupole moment (field-independent basis, Debye-Ang):
   XX=            -13.9386   YY=            -13.9859   ZZ=            -18.5963
   XY=              0.0068   XZ=              0.0098   YZ=             -0.0125

 Normal termination of Gaussian 16 at Thu May 23 19:32:27 2024.
