 Gaussian 16, Revision C.02,

 ----------------------------------------------------------------------
 #p BLYP empiricaldispersion=gd3 6-31+G(2df,p) opt=(cartesian,calcall,m
 axcycles=500) freq scf=(maxcycles=500,xqc,maxconventional=50)
 ----------------------------------------------------------------------

 -----
 Title
 -----
 Symbolic Z-matrix:
 Charge =  2 Multiplicity = 3

 SCF Done:  E(UB-LYP) =  -1307.24734670     A.U. after   24 cycles
 SCF Done:  E(UB-LYP) =  -1307.28969690     A.U. after   18 cycles
 SCF Done:  E(UB-LYP) =  -1307.35645099     A.U. after   18 cycles
 SCF Done:  E(UB-LYP) =  -1307.39521644     A.U. after   19 cycles
 SCF Done:  E(UB-LYP) =  -1307.43198546     A.U. after   17 cycles
 SCF Done:  E(UB-LYP) =  -1307.46765222     A.U. after   17 cycles
 SCF Done:  E(UB-LYP) =  -1307.49743179     A.U. after   18 cycles
 SCF Done:  E(UB-LYP) =  -1307.51066208     A.U. after   17 cycles
 SCF Done:  E(UB-LYP) =  -1307.52930006     A.U. after   18 cycles
 SCF Done:  E(UB-LYP) =  -1307.53938631     A.U. after   16 cycles
 SCF Done:  E(UB-LYP) =  -1307.57953517     A.U. after   11 cycles
 SCF Done:  E(UB-LYP) =  -1307.57961265     A.U. after   13 cycles
 SCF Done:  E(UB-LYP) =  -1307.57962769     A.U. after   12 cycles
 SCF Done:  E(UB-LYP) =  -1307.57962926     A.U. after   11 cycles
 SCF Done:  E(UB-LYP) =  -1307.57963782     A.U. after    9 cycles
 SCF Done:  E(UB-LYP) =  -1307.57963539     A.U. after    9 cycles
 SCF Done:  E(UB-LYP) =  -1307.57963167     A.U. after   10 cycles
 SCF Done:  E(UB-LYP) =  -1307.57963390     A.U. after    8 cycles
 Optimization completed.
    -- Stationary point found.
 Normal termination of Gaussian 16 at Thu May 23 17:00:45 2024.

 ----------------------------------------------------------------------
 #P Geom=AllCheck Guess=TCheck SCRF=Check GenChk UBLYP/6-31+G(2df,p) Fr
 eq
 ----------------------------------------------------------------------

 Structure from the checkpoint file:  "Ti_2_BLYP.chk"
 -----
 Title
 -----
 Charge =  2 Multiplicity = 3

 SCF Done:  E(UB-LYP) =  -1307.57963390     A.U. after    1 cycles

  Exact polarizability:      65.574      -0.000      65.575       0.002      -0.004      62.262
 Approx polarizability:      93.445      -0.004      93.446       0.000      -0.000      86.265

                      1                      2                      3
                      A                      A                      A
 Frequencies --     69.2311                70.5664                72.1190
 Red. masses --      5.4810                 5.5314                 4.6468
 Frc consts  --      0.0155                 0.0162                 0.0142
 IR Inten    --      2.9420                 2.9604                 0.0020

                      4                      5                      6
                      A                      A                      A
 Frequencies --     72.6725                92.9143                97.2586
 Red. masses --      4.6498                 5.5065                 5.4527
 Frc consts  --      0.0145                 0.0280                 0.0304
 IR Inten    --      0.0008                 0.0000                 2.1503

                      7                      8                      9
                      A                      A                      A
 Frequencies --    106.4168               106.9188               113.3627
 Red. masses --      2.9344                 2.9476                 3.9796
 Frc consts  --      0.0196                 0.0199                 0.0301
 IR Inten    --      0.6216                 0.5652                 2.6767

                     10                     11                     12
                      A                      A                      A
 Frequencies --    189.6421               190.2804               203.0428
 Red. masses --      1.3943                 1.4008                 1.1929
 Frc consts  --      0.0295                 0.0299                 0.0290
 IR Inten    --      0.0006                 0.0004                17.9192

                     13                     14                     15
                      A                      A                      A
 Frequencies --    203.5758               226.8735               283.7228
 Red. masses --      1.1879                 1.0203                 2.3525
 Frc consts  --      0.0290                 0.0309                 0.1116
 IR Inten    --     18.0144                 0.0004                 0.0004

                     16                     17                     18
                      A                      A                      A
 Frequencies --    284.0709               312.6717               322.0750
 Red. masses --      2.3550                 5.7764                 2.1992
 Frc consts  --      0.1120                 0.3327                 0.1344
 IR Inten    --      0.0000                 0.0000                64.3394

                     19                     20                     21
                      A                      A                      A
 Frequencies --    346.9179               347.2932               347.6355
 Red. masses --      1.1313                 1.1312                 3.2953
 Frc consts  --      0.0802                 0.0804                 0.2346
 IR Inten    --      0.0083                 0.0194                29.1427

                     22                     23                     24
                      A                      A                      A
 Frequencies --    347.8983               354.3260               376.6721
 Red. masses --      3.2886                 1.2012                 1.2736
 Frc consts  --      0.2345                 0.0889                 0.1065
 IR Inten    --     28.8063                11.5561               269.3027

                     25                     26                     27
                      A                      A                      A
 Frequencies --    376.9888               392.4249               397.4431
 Red. masses --      1.2640                 1.1131                 1.4199
 Frc consts  --      0.1058                 0.1010                 0.1321
 IR Inten    --    271.2677                 0.0048               552.4209

                     28                     29                     30
                      A                      A                      A
 Frequencies --    489.3758               534.5569               534.9751
 Red. masses --      1.1436                 1.1468                 1.1459
 Frc consts  --      0.1614                 0.1931                 0.1932
 IR Inten    --      0.0000                 0.0253                 0.0051

                     31                     32                     33
                      A                      A                      A
 Frequencies --    536.7241               565.2233               565.6789
 Red. masses --      1.2322                 1.2727                 1.2713
 Frc consts  --      0.2091                 0.2396                 0.2397
 IR Inten    --    130.1732               211.0747               210.6288

                     34                     35                     36
                      A                      A                      A
 Frequencies --   1621.6713              1621.7073              1622.5039
 Red. masses --      1.0870                 1.0870                 1.0871
 Frc consts  --      1.6843                 1.6844                 1.6861
 IR Inten    --    182.2949               182.3913                 0.0254

                     37                     38                     39
                      A                      A                      A
 Frequencies --   1622.5692              1624.7064              1632.4011
 Red. masses --      1.0871                 1.0866                 1.0817
 Frc consts  --      1.6863                 1.6900                 1.6983
 IR Inten    --      0.0983               207.8108                 0.0010

                     40                     41                     42
                      A                      A                      A
 Frequencies --   3617.7793              3617.7905              3619.2797
 Red. masses --      1.0439                 1.0439                 1.0442
 Frc consts  --      8.0502                 8.0503                 8.0589
 IR Inten    --      0.0115                 0.0254               192.4508

                     43                     44                     45
                      A                      A                      A
 Frequencies --   3619.2916              3621.2409              3624.2425
 Red. masses --      1.0442                 1.0442                 1.0449
 Frc consts  --      8.0589                 8.0674                 8.0862
 IR Inten    --    192.6890               158.0893                 0.0021

                     46                     47                     48
                      A                      A                      A
 Frequencies --   3694.1105              3694.1223              3695.3359
 Red. masses --      1.0834                 1.0834                 1.0829
 Frc consts  --      8.7110                 8.7110                 8.7124
 IR Inten    --      0.0749                 0.1305               209.4514

                     49                     50                     51
                      A                      A                      A
 Frequencies --   3695.9124              3697.0602              3697.0758
 Red. masses --      1.0831                 1.0830                 1.0830
 Frc consts  --      8.7171                 8.7218                 8.7219
 IR Inten    --      0.3558               379.6226               379.8819

 - Thermochemistry -
 -------------------
 Temperature   298.150 Kelvin.  Pressure   1.00000 Atm.
 Atom     1 has atomic number 22 and mass  47.94795

 Molecular mass:   156.01133 amu.
 Principal axes and moments of inertia in atomic units:
                           1         2         3
     Eigenvalues --  1346.933171347.260321416.37446
           X            0.99995   0.01048  -0.00002
           Y           -0.01048   0.99995  -0.00003
           Z            0.00002   0.00003   1.00000
 This molecule is an asymmetric top.
 Rotational symmetry number  1.
 Warning -- assumption of classical behavior for rotation
           may cause significant error
 Rotational temperatures (Kelvin)      0.06430     0.06429     0.06115
 Rotational constants (GHZ):           1.33989     1.33956     1.27420
 Zero-point vibrational energy     377842.6 (Joules/Mol)
                                   90.30655 (Kcal/Mol)
 Warning -- explicit consideration of  33 degrees of freedom as
           vibrations may cause significant error
 Vibrational temperatures:     99.61   101.53   103.76   104.56   133.68
          (Kelvin)            139.93   153.11   153.83   163.10   272.85
                              273.77   292.13   292.90   326.42   408.21
                              408.71   449.86   463.39   499.14   499.68
                              500.17   500.55   509.80   541.95   542.40
                              564.61   571.83   704.10   769.11   769.71
                              772.23   813.23   813.89  2333.22  2333.28
                             2334.42  2334.52  2337.59  2348.66  5205.18
                             5205.19  5207.34  5207.35  5210.16  5214.48
                             5315.00  5315.02  5316.76  5317.59  5319.25
                             5319.27

 Zero-point correction=                           0.143913 (Hartree/Particle)
 Thermal correction to Energy=                    0.162329
 Thermal correction to Enthalpy=                  0.163274
 Thermal correction to Gibbs Free Energy=         0.098819
 Sum of electronic and zero-point Energies=          -1307.435721
 Sum of electronic and thermal Energies=             -1307.417304
 Sum of electronic and thermal Enthalpies=           -1307.416360
 Sum of electronic and thermal Free Energies=        -1307.480815

                     E (Thermal)             CV                S
                      KCal/Mol        Cal/Mol-Kelvin    Cal/Mol-Kelvin
 Total                  101.863             60.609            135.657
 Electronic               0.000              0.000              2.183
 Translational            0.889              2.981             41.044
 Rotational               0.889              2.981             29.332
 Vibrational            100.086             54.648             63.098
 Vibration     1          0.598              1.969              4.175
 Vibration     2          0.598              1.968              4.137
 Vibration     3          0.598              1.967              4.095
 Vibration     4          0.599              1.967              4.080
 Vibration     5          0.602              1.954              3.598
 Vibration     6          0.603              1.951              3.509
 Vibration     7          0.605              1.944              3.333
 Vibration     8          0.606              1.944              3.324
 Vibration     9          0.607              1.938              3.211
 Vibration    10          0.633              1.854              2.231
 Vibration    11          0.634              1.853              2.225
 Vibration    12          0.639              1.836              2.105
 Vibration    13          0.639              1.835              2.101
 Vibration    14          0.651              1.800              1.904
 Vibration    15          0.682              1.704              1.511
 Vibration    16          0.682              1.703              1.509
 Vibration    17          0.701              1.650              1.348
 Vibration    18          0.707              1.631              1.300
 Vibration    19          0.725              1.582              1.180
 Vibration    20          0.725              1.581              1.178
 Vibration    21          0.725              1.580              1.177
 Vibration    22          0.726              1.580              1.176
 Vibration    23          0.730              1.566              1.147
 Vibration    24          0.747              1.520              1.053
 Vibration    25          0.748              1.519              1.051
 Vibration    26          0.760              1.486              0.991
 Vibration    27          0.764              1.476              0.972
 Vibration    28          0.845              1.274              0.685
 Vibration    29          0.890              1.174              0.577
 Vibration    30          0.890              1.173              0.576
 Vibration    31          0.892              1.169              0.572
 Vibration    32          0.921              1.106              0.514
 Vibration    33          0.922              1.106              0.513

 Normal termination of Gaussian 16 at Thu May 23 17:02:12 2024.
 Gaussian 16:  ES64L-G16RevC.02  7-Dec-2021

 ----------------------------------------------------------------------
 #p BLYP empiricaldispersion=gd3 scf=(maxcycles=500,xqc,maxconventional
 =50) scrf=(cpcm,solvent=water) geom=allcheck guess=read chkbasis
 ----------------------------------------------------------------------

 Structure from the checkpoint file:  "Ti_2_BLYP.chk_solvated"
 -----
 Title
 -----
 Charge =  2 Multiplicity = 3

                         Standard orientation:
 ---------------------------------------------------------------------
 Center     Atomic      Atomic             Coordinates (Angstroms)
 Number     Number       Type             X           Y           Z
 ---------------------------------------------------------------------
      1         22           0        0.000030    0.000252    0.000020
      2          8           0        0.699299    1.704950    1.237845
      3          1           0        0.302050    2.597519    1.275514
      4          8           0        1.826081    0.246140   -1.238369
      5          1           0        2.174860   -0.375664   -1.906791
      6          8           0        1.126854   -1.457184    1.238532
      7          1           0        0.763244   -2.069018    1.908252
      8          8           0       -0.699170   -1.705283   -1.236940
      9          1           0       -1.411778   -1.697171   -1.905670
     10          8           0       -1.826340   -0.246263    1.237845
     11          1           0       -2.175925    0.375148    1.906207
     12          8           0       -1.126793    1.457118   -1.238949
     13          1           0       -0.763091    2.070228   -1.907452
     14          1           0       -2.098401    1.559791   -1.275553
     15          1           0        2.400634    1.036324   -1.275840
     16          1           0        1.413282    1.696598    1.905112
     17          1           0       -2.400885   -1.036503    1.274180
     18          1           0        2.098421   -1.560439    1.274567
     19          1           0       -0.302518   -2.598194   -1.272689
 ---------------------------------------------------------------------

 SCF Done:  E(UB-LYP) =  -1307.85355709     A.U. after   12 cycles

 The electronic state is 3-A.
 Alpha  occ. eigenvalues -- -177.75004 -19.44874 -18.86171 -18.86170 -18.86168
 Alpha  occ. eigenvalues --  -18.86166 -18.86164 -18.86163 -16.24784 -16.24139
 Alpha  occ. eigenvalues --  -16.24136  -2.20803  -1.37138  -1.36442  -1.36439
 Alpha  occ. eigenvalues --   -0.97411  -0.96958  -0.96958  -0.96953  -0.96953
 Alpha  occ. eigenvalues --   -0.96901  -0.52640  -0.52636  -0.52414  -0.52408
 Alpha  occ. eigenvalues --   -0.52307  -0.52047  -0.44366  -0.42066  -0.42061
 Alpha  occ. eigenvalues --   -0.41205  -0.41201  -0.40949  -0.32797  -0.31890
 Alpha  occ. eigenvalues --   -0.31648  -0.31644  -0.31583  -0.31580  -0.11257
 Alpha  occ. eigenvalues --   -0.11254
 Alpha virt. eigenvalues --   -0.08314  -0.06671  -0.03774  -0.03770  -0.03135
 Alpha virt. eigenvalues --   -0.03133  -0.02898   0.02323   0.02962   0.02966
 Alpha virt. eigenvalues --    0.06173   0.06175   0.06402   0.06405   0.07032

  Beta  occ. eigenvalues -- -177.74995 -19.43182 -18.86164 -18.86163 -18.86161
  Beta  occ. eigenvalues --  -18.86159 -18.86157 -18.86156 -16.23733 -16.22693
  Beta  occ. eigenvalues --  -16.22688  -2.14965  -1.32635  -1.30129  -1.30119
  Beta  occ. eigenvalues --   -0.97369  -0.96925  -0.96921  -0.96898  -0.96894
  Beta  occ. eigenvalues --   -0.96854  -0.52579  -0.52575  -0.52370  -0.52364
  Beta  occ. eigenvalues --   -0.52273  -0.52012  -0.44137  -0.41956  -0.41951
  Beta  occ. eigenvalues --   -0.41128  -0.41124  -0.40903  -0.32691  -0.31836
  Beta  occ. eigenvalues --   -0.31523  -0.31519  -0.31486  -0.31483
  Beta virt. eigenvalues --   -0.06534  -0.05612  -0.03322  -0.03318  -0.03090
  Beta virt. eigenvalues --   -0.03089  -0.02860  -0.02046  -0.02043   0.02407
  Beta virt. eigenvalues --    0.03856   0.03859   0.06221   0.06222   0.06557

 Mulliken charges and spin densities:
               1          2
     1  Ti   1.315389   2.044144
     2  O   -0.679352  -0.012476
     3  H    0.394708   0.003555
     4  O   -0.679311  -0.012433
     5  H    0.398804   0.001531
     6  O   -0.679611  -0.012432
     7  H    0.398809   0.001540
     8  O   -0.679593  -0.012448
     9  H    0.398783   0.001537
    10  O   -0.679263  -0.012432
    11  H    0.398793   0.001531
    12  O   -0.679317  -0.012450
    13  H    0.398765   0.001550
    14  H    0.394732   0.003552
    15  H    0.394734   0.003542
    16  H    0.398749   0.001548
    17  H    0.394714   0.003540
    18  H    0.394754   0.003551
    19  H    0.394714   0.003551
 Sum of Mulliken charges =   2.00000   2.00000

 Dipole moment (field-independent basis, Debye):
    X=              0.0004    Y=              0.0009    Z=             -0.0001  Tot=              0.0010
 Quadrupole moment (field-independent basis, Debye-Ang):
   XX=            -14.5198   YY=            -14.5305   ZZ=            -19.5275
   XY=              0.0030   XZ=             -0.0049   YZ=              0.0002

 Normal termination of Gaussian 16 at Thu May 23 17:02:59 2024.
