 Gaussian 16, Revision C.02,

 ----------------------------------------------------------------------
 #p B3LYP empiricaldispersion=gd3 geom=allcheck guess=read chkbasis opt
 =(loose,cartesian,calcall,maxcycles=500) freq scf=(maxcycles=500,xqc,m
 axconventional=50)
 ----------------------------------------------------------------------

 Structure from the checkpoint file:  "Cr_2_B3LYP.chk"
 -----
 Title
 -----
 Charge =  2 Multiplicity = 5

 SCF Done:  E(UB3LYP) =  -1502.63869863     A.U. after   16 cycles
 SCF Done:  E(UB3LYP) =  -1502.63984122     A.U. after   14 cycles
 SCF Done:  E(UB3LYP) =  -1502.63989756     A.U. after   15 cycles
 SCF Done:  E(UB3LYP) =  -1502.63992350     A.U. after   14 cycles
 SCF Done:  E(UB3LYP) =  -1502.63993680     A.U. after   13 cycles
 Optimization completed.
    -- Stationary point found.
 Normal termination of Gaussian 16 at Sat May 25 13:07:28 2024.

 ------------------------------------------------------------------
 #P Geom=AllCheck Guess=TCheck SCRF=Check GenChk UB3LYP/ChkBas Freq
 ------------------------------------------------------------------

 Structure from the checkpoint file:  "Cr_2_B3LYP.chk"
 -----
 Title
 -----
 Charge =  2 Multiplicity = 5

 SCF Done:  E(UB3LYP) =  -1502.63993680     A.U. after    1 cycles

  Exact polarizability:      59.297       0.000      56.763      -0.020      -0.000      57.344
 Approx polarizability:      71.102       0.000      70.134      -0.001      -0.000      70.646

                      1                      2                      3
                      A                      A                      A
 Frequencies --     31.9810                41.0940                70.0458
 Red. masses --      4.6512                 6.4964                 4.3318
 Frc consts  --      0.0028                 0.0065                 0.0125
 IR Inten    --      0.0000                 3.2204                 1.9911

                      4                      5                      6
                      A                      A                      A
 Frequencies --     81.7020                85.3903               116.5738
 Red. masses --      5.3780                 3.9970                 4.9053
 Frc consts  --      0.0212                 0.0172                 0.0393
 IR Inten    --      0.0000                 5.4445                 0.0000

                      7                      8                      9
                      A                      A                      A
 Frequencies --    125.8394               136.1418               144.8015
 Red. masses --      6.7705                 8.8395                 3.5860
 Frc consts  --      0.0632                 0.0965                 0.0443
 IR Inten    --      0.8716                 6.4213                 2.8857

                     10                     11                     12
                      A                      A                      A
 Frequencies --    176.7646               183.7937               210.4309
 Red. masses --      1.0084                 5.8965                 5.8955
 Frc consts  --      0.0186                 0.1174                 0.1538
 IR Inten    --      0.0299                 0.0000                 0.2393

                     13                     14                     15
                      A                      A                      A
 Frequencies --    228.7425               232.0899               244.3188
 Red. masses --      5.5774                 1.0080                 1.0178
 Frc consts  --      0.1719                 0.0320                 0.0358
 IR Inten    --      0.0000                 0.0574                 0.0000

                     16                     17                     18
                      A                      A                      A
 Frequencies --    254.4814               259.2753               326.1460
 Red. masses --      1.0386                 1.1067                 1.1475
 Frc consts  --      0.0396                 0.0438                 0.0719
 IR Inten    --      0.0000                 0.0000               465.5077

                     19                     20                     21
                      A                      A                      A
 Frequencies --    333.0374               348.6995               352.0567
 Red. masses --      1.0400                 5.8649                 1.1222
 Frc consts  --      0.0680                 0.4202                 0.0820
 IR Inten    --      0.0000                 0.0000               269.8313

                     22                     23                     24
                      A                      A                      A
 Frequencies --    358.0632               387.9834               389.2150
 Red. masses --      1.0831                 2.7288                 3.0241
 Frc consts  --      0.0818                 0.2420                 0.2699
 IR Inten    --      0.0000                86.1793                 0.3706

                     25                     26                     27
                      A                      A                      A
 Frequencies --    402.7811               402.9476               419.2016
 Red. masses --      1.1259                 1.0122                 1.4338
 Frc consts  --      0.1076                 0.0968                 0.1484
 IR Inten    --      0.0000                 0.1666               333.6466

                     28                     29                     30
                      A                      A                      A
 Frequencies --    456.2441               463.1772               546.7562
 Red. masses --      1.1228                 1.4432                 1.1633
 Frc consts  --      0.1377                 0.1824                 0.2049
 IR Inten    --      0.0000               422.2823                 0.0000

                     31                     32                     33
                      A                      A                      A
 Frequencies --    557.4496               582.1878               590.7993
 Red. masses --      1.1714                 1.2334                 1.3176
 Frc consts  --      0.2145                 0.2463                 0.2710
 IR Inten    --      0.0000               218.8539               206.2889

                     34                     35                     36
                      A                      A                      A
 Frequencies --   1637.0057              1637.2030              1647.4647
 Red. masses --      1.0980                 1.0941                 1.0933
 Frc consts  --      1.7336                 1.7279                 1.7483
 IR Inten    --      0.0001               235.4771               228.2725

                     37                     38                     39
                      A                      A                      A
 Frequencies --   1648.4151              1648.5448              1653.1148
 Red. masses --      1.0909                 1.0860                 1.0848
 Frc consts  --      1.7465                 1.7389                 1.7466
 IR Inten    --      0.0000               190.7734                 0.0000

                     40                     41                     42
                      A                      A                      A
 Frequencies --   3744.6656              3746.4493              3752.8977
 Red. masses --      1.0438                 1.0438                 1.0446
 Frc consts  --      8.6237                 8.6316                 8.6682
 IR Inten    --    272.0747                 0.0000                 0.0000

                     43                     44                     45
                      A                      A                      A
 Frequencies --   3752.9335              3755.9382              3759.4468
 Red. masses --      1.0447                 1.0441                 1.0447
 Frc consts  --      8.6695                 8.6782                 8.6992
 IR Inten    --    146.3667               264.2325                 0.0000

                     46                     47                     48
                      A                      A                      A
 Frequencies --   3832.5761              3833.2405              3840.0940
 Red. masses --      1.0852                 1.0853                 1.0832
 Frc consts  --      9.3919                 9.3956                 9.4110
 IR Inten    --      0.0000               430.4223                 0.0000

                     49                     50                     51
                      A                      A                      A
 Frequencies --   3840.3668              3842.4148              3842.9308
 Red. masses --      1.0832                 1.0849                 1.0850
 Frc consts  --      9.4128                 9.4376                 9.4407
 IR Inten    --    314.5217                 0.0000               400.7241

 - Thermochemistry -
 -------------------
 Temperature   298.150 Kelvin.  Pressure   1.00000 Atm.
 Atom     1 has atomic number 24 and mass  51.94051

 Molecular mass:   160.00390 amu.
 Principal axes and moments of inertia in atomic units:
                           1         2         3
     Eigenvalues --  1220.065381392.433281396.88072
           X            1.00000   0.00000  -0.00114
           Y           -0.00000   1.00000   0.00000
           Z            0.00114  -0.00000   1.00000
 This molecule is an asymmetric top.
 Rotational symmetry number  1.
 Warning -- assumption of classical behavior for rotation
           may cause significant error
 Rotational temperatures (Kelvin)      0.07099     0.06220     0.06201
 Rotational constants (GHZ):           1.47922     1.29611     1.29198
 Zero-point vibrational energy     388522.6 (Joules/Mol)
                                   92.85914 (Kcal/Mol)
 Warning -- explicit consideration of  33 degrees of freedom as
           vibrations may cause significant error
 Vibrational temperatures:     46.01    59.13   100.78   117.55   122.86
          (Kelvin)            167.72   181.05   195.88   208.34   254.32
                              264.44   302.76   329.11   333.93   351.52
                              366.14   373.04   469.25   479.17   501.70
                              506.53   515.17   558.22   559.99   579.51
                              579.75   603.14   656.43   666.41   786.66
                              802.05   837.64   850.03  2355.29  2355.57
                             2370.33  2371.70  2371.89  2378.46  5387.74
                             5390.30  5399.58  5399.63  5403.96  5409.01
                             5514.22  5515.18  5525.04  5525.43  5528.38
                             5529.12

 Zero-point correction=                           0.147980 (Hartree/Particle)
 Thermal correction to Energy=                    0.166411
 Thermal correction to Enthalpy=                  0.167355
 Thermal correction to Gibbs Free Energy=         0.101798
 Sum of electronic and zero-point Energies=          -1502.491956
 Sum of electronic and thermal Energies=             -1502.473526
 Sum of electronic and thermal Enthalpies=           -1502.472581
 Sum of electronic and thermal Free Energies=        -1502.538139

                     E (Thermal)             CV                S
                      KCal/Mol        Cal/Mol-Kelvin    Cal/Mol-Kelvin
 Total                  104.425             60.549            137.978
 Electronic               0.000              0.000              3.198
 Translational            0.889              2.981             41.119
 Rotational               0.889              2.981             29.252
 Vibrational            102.647             54.587             64.408
 Vibration     1          0.594              1.983              5.703
 Vibration     2          0.594              1.981              5.206
 Vibration     3          0.598              1.968              4.152
 Vibration     4          0.600              1.962              3.850
 Vibration     5          0.601              1.959              3.763
 Vibration     6          0.608              1.936              3.156
 Vibration     7          0.611              1.927              3.009
 Vibration     8          0.614              1.917              2.857
 Vibration     9          0.616              1.908              2.739
 Vibration    10          0.628              1.871              2.362
 Vibration    11          0.631              1.862              2.290
 Vibration    12          0.643              1.825              2.040
 Vibration    13          0.651              1.797              1.889
 Vibration    14          0.653              1.792              1.863
 Vibration    15          0.660              1.772              1.771
 Vibration    16          0.665              1.755              1.699
 Vibration    17          0.668              1.747              1.667
 Vibration    18          0.710              1.623              1.279
 Vibration    19          0.715              1.610              1.245
 Vibration    20          0.726              1.578              1.172
 Vibration    21          0.729              1.571              1.157
 Vibration    22          0.733              1.559              1.131
 Vibration    23          0.756              1.496              1.008
 Vibration    24          0.757              1.493              1.003
 Vibration    25          0.768              1.464              0.952
 Vibration    26          0.768              1.464              0.952
 Vibration    27          0.782              1.429              0.895
 Vibration    28          0.814              1.347              0.777
 Vibration    29          0.821              1.332              0.757
 Vibration    30          0.902              1.147              0.551
 Vibration    31          0.913              1.123              0.529
 Vibration    32          0.939              1.070              0.481
 Vibration    33          0.948              1.051              0.466

 Normal termination of Gaussian 16 at Sat May 25 13:09:17 2024.
 Gaussian 16:  ES64L-G16RevC.02  7-Dec-2021

 ----------------------------------------------------------------------
 #p B3LYP empiricaldispersion=gd3 scf=(maxcycles=500,xqc,maxconventiona
 l=50) scrf=(cpcm,solvent=water) geom=allcheck guess=read chkbasis
 ----------------------------------------------------------------------

 Structure from the checkpoint file:  "Cr_2_B3LYP.chk_solvated"
 -----
 Title
 -----
 Charge =  2 Multiplicity = 5

                         Standard orientation:
 ---------------------------------------------------------------------
 Center     Atomic      Atomic             Coordinates (Angstroms)
 Number     Number       Type             X           Y           Z
 ---------------------------------------------------------------------
      1         24           0       -0.000000   -0.000000   -0.000000
      2          8           0       -0.270537    0.000001   -2.073616
      3          1           0       -1.128269    0.000000   -2.522765
      4          8           0        0.000003   -2.095046   -0.000002
      5          1           0        0.096236   -2.665732    0.775189
      6          8           0        2.367948    0.000003   -0.235403
      7          1           0        2.948149    0.770299   -0.315449
      8          8           0        0.270537   -0.000001    2.073616
      9          1           0       -0.423534   -0.000003    2.748500
     10          8           0       -0.000003    2.095046    0.000001
     11          1           0       -0.096235    2.665732   -0.775190
     12          8           0       -2.367947   -0.000003    0.235405
     13          1           0       -2.948149   -0.770299    0.315452
     14          1           0       -2.948150    0.770293    0.315452
     15          1           0       -0.096229   -2.665731   -0.775193
     16          1           0        0.423534    0.000002   -2.748501
     17          1           0        0.096228    2.665731    0.775192
     18          1           0        2.948150   -0.770292   -0.315450
     19          1           0        1.128269    0.000000    2.522765
 ---------------------------------------------------------------------

 SCF Done:  E(UB3LYP) =  -1502.91472620     A.U. after   15 cycles

 The electronic state is 5-A.
 Alpha  occ. eigenvalues -- -215.73767 -24.74769 -21.03972 -21.03943 -21.02843
 Alpha  occ. eigenvalues --  -19.22576 -19.22576 -19.22325 -19.22325 -19.19641
 Alpha  occ. eigenvalues --  -19.19641  -2.96884  -1.92317  -1.92238  -1.91447
 Alpha  occ. eigenvalues --   -1.08831  -1.08422  -1.08232  -1.08200  -1.05537
 Alpha  occ. eigenvalues --   -1.05518  -0.60490  -0.60375  -0.60298  -0.60144
 Alpha  occ. eigenvalues --   -0.57099  -0.57060  -0.52969  -0.50213  -0.49021
 Alpha  occ. eigenvalues --   -0.49001  -0.46750  -0.45723  -0.40329  -0.39972
 Alpha  occ. eigenvalues --   -0.39305  -0.38994  -0.36567  -0.36261  -0.28639
 Alpha  occ. eigenvalues --   -0.26831  -0.26105  -0.22511
 Alpha virt. eigenvalues --   -0.07565  -0.05069  -0.01329  -0.01224  -0.01110
 Alpha virt. eigenvalues --    0.03338   0.04689   0.05294   0.08530   0.08536
 Alpha virt. eigenvalues --    0.08631   0.08719   0.08840   0.09542   0.13145

  Beta  occ. eigenvalues -- -215.73697 -24.69030 -20.99615 -20.99573 -20.97159
  Beta  occ. eigenvalues --  -19.22559 -19.22559 -19.22308 -19.22308 -19.19534
  Beta  occ. eigenvalues --  -19.19534  -2.80355  -1.76350  -1.76244  -1.70911
  Beta  occ. eigenvalues --   -1.08743  -1.08329  -1.08145  -1.08131  -1.05376
  Beta  occ. eigenvalues --   -1.05357  -0.60365  -0.60308  -0.60171  -0.60090
  Beta  occ. eigenvalues --   -0.56973  -0.56954  -0.52432  -0.49818  -0.48977
  Beta  occ. eigenvalues --   -0.48956  -0.45622  -0.45331  -0.39423  -0.39181
  Beta  occ. eigenvalues --   -0.39070  -0.38732  -0.36121  -0.36056
  Beta virt. eigenvalues --   -0.04953  -0.02933  -0.01894  -0.01280  -0.01178
  Beta virt. eigenvalues --   -0.01095  -0.01059  -0.01038   0.01111   0.03492
  Beta virt. eigenvalues --    0.06221   0.06625   0.08593   0.08665   0.08807

 Mulliken charges and spin densities:
               1          2
     1  Cr   1.212864   3.980793
     2  O   -0.694206   0.002519
     3  H    0.415429   0.001797
     4  O   -0.691400   0.004613
     5  H    0.414435   0.001568
     6  O   -0.670579  -0.012551
     7  H    0.394392   0.004285
     8  O   -0.694206   0.002519
     9  H    0.416670   0.001520
    10  O   -0.691400   0.004613
    11  H    0.414435   0.001568
    12  O   -0.670579  -0.012551
    13  H    0.394392   0.004285
    14  H    0.394392   0.004285
    15  H    0.414435   0.001568
    16  H    0.416670   0.001520
    17  H    0.414435   0.001568
    18  H    0.394392   0.004285
    19  H    0.415429   0.001797
 Sum of Mulliken charges =   2.00000   4.00000

 Dipole moment (field-independent basis, Debye):
    X=             -0.0000    Y=              0.0000    Z=             -0.0000  Tot=              0.0000
 Quadrupole moment (field-independent basis, Debye-Ang):
   XX=            -16.4773   YY=            -15.5464   ZZ=            -15.4393
   XY=             -0.0000   XZ=              0.5594   YZ=              0.0000

 Normal termination of Gaussian 16 at Sat May 25 13:09:46 2024.
