 Gaussian 16, Revision C.02,

 ----------------------------------------------------------------------
 #p HSEH1PBE 6-31+G(2df,p) opt=(cartesian,calcall,maxcycles=500) freq s
 cf=(maxcycles=500,xqc,maxconventional=50)
 ----------------------------------------------------------------------

 -----
 Title
 -----
 Symbolic Z-matrix:
 Charge =  3 Multiplicity = 4

 SCF Done:  E(UHSEH1PBE) =  -1501.20746817     A.U. after   17 cycles
 SCF Done:  E(UHSEH1PBE) =  -1501.23154229     A.U. after   13 cycles
 SCF Done:  E(UHSEH1PBE) =  -1501.27141359     A.U. after   15 cycles
 SCF Done:  E(UHSEH1PBE) =  -1501.30056758     A.U. after   16 cycles
 SCF Done:  E(UHSEH1PBE) =  -1501.34208550     A.U. after   14 cycles
 SCF Done:  E(UHSEH1PBE) =  -1501.37110122     A.U. after   14 cycles
 SCF Done:  E(UHSEH1PBE) =  -1501.37153053     A.U. after   17 cycles
 SCF Done:  E(UHSEH1PBE) =  -1501.38155924     A.U. after   15 cycles
 SCF Done:  E(UHSEH1PBE) =  -1501.38121803     A.U. after   16 cycles
 SCF Done:  E(UHSEH1PBE) =  -1501.38800742     A.U. after   15 cycles
 SCF Done:  E(UHSEH1PBE) =  -1501.40072574     A.U. after    8 cycles
 SCF Done:  E(UHSEH1PBE) =  -1501.40072221     A.U. after    9 cycles
 SCF Done:  E(UHSEH1PBE) =  -1501.40072756     A.U. after    8 cycles
 SCF Done:  E(UHSEH1PBE) =  -1501.40072759     A.U. after   10 cycles
 SCF Done:  E(UHSEH1PBE) =  -1501.40073053     A.U. after    9 cycles
 SCF Done:  E(UHSEH1PBE) =  -1501.40072817     A.U. after    8 cycles
 SCF Done:  E(UHSEH1PBE) =  -1501.40072838     A.U. after    9 cycles
 SCF Done:  E(UHSEH1PBE) =  -1501.40072869     A.U. after    5 cycles
 Optimization completed.
    -- Stationary point found.
 Normal termination of Gaussian 16 at Thu May 23 14:45:49 2024.

 ----------------------------------------------------------------------
 #P Geom=AllCheck Guess=TCheck SCRF=Check GenChk UHSEH1PBE/6-31+G(2df,p
 ) Freq
 ----------------------------------------------------------------------

 Structure from the checkpoint file:  "Cr_3_HSE06.chk"
 -----
 Title
 -----
 Charge =  3 Multiplicity = 4

 SCF Done:  E(UHSEH1PBE) =  -1501.40072869     A.U. after    1 cycles

  Exact polarizability:      55.850      -0.002      55.847      -0.001      -0.002      55.847
 Approx polarizability:      72.628      -0.005      72.636      -0.001      -0.006      72.644

                      1                      2                      3
                      A                      A                      A
 Frequencies --    147.2469               147.6445               148.4628
 Red. masses --      5.3918                 5.4132                 5.4195
 Frc consts  --      0.0689                 0.0695                 0.0704
 IR Inten    --      8.5392                 8.5957                 8.5684

                      4                      5                      6
                      A                      A                      A
 Frequencies --    170.7948               170.9017               171.4550
 Red. masses --      5.2678                 5.2734                 5.2768
 Frc consts  --      0.0905                 0.0907                 0.0914
 IR Inten    --      0.0005                 0.0004                 0.0003

                      7                      8                      9
                      A                      A                      A
 Frequencies --    210.5165               210.6091               210.8844
 Red. masses --      4.8292                 4.8321                 4.8259
 Frc consts  --      0.1261                 0.1263                 0.1264
 IR Inten    --      0.9597                 0.9716                 0.9665

                     10                     11                     12
                      A                      A                      A
 Frequencies --    256.8483               257.5727               328.3262
 Red. masses --      1.0079                 1.0079                 1.0380
 Frc consts  --      0.0392                 0.0394                 0.0659
 IR Inten    --      0.0020                 0.0014                 0.0035

                     13                     14                     15
                      A                      A                      A
 Frequencies --    328.5086               329.0410               401.0172
 Red. masses --      1.0375                 1.0375                 5.7464
 Frc consts  --      0.0660                 0.0662                 0.5445
 IR Inten    --      0.0038                 0.0029                 0.0000

                     16                     17                     18
                      A                      A                      A
 Frequencies --    401.2372               449.1612               449.6020
 Red. masses --      5.7467                 1.1050                 1.1603
 Frc consts  --      0.5451                 0.1313                 0.1382
 IR Inten    --      0.0000                31.5012               122.6672

                     19                     20                     21
                      A                      A                      A
 Frequencies --    449.9064               450.0950               450.1320
 Red. masses --      1.1506                 1.2690                 1.2689
 Frc consts  --      0.1372                 0.1515                 0.1515
 IR Inten    --    103.0039               274.5417               274.9362

                     22                     23                     24
                      A                      A                      A
 Frequencies --    450.2979               457.7273               481.6875
 Red. masses --      1.1846                 5.9928                 1.0084
 Frc consts  --      0.1415                 0.7398                 0.1378
 IR Inten    --    153.7907                 0.0000                 0.0445

                     25                     26                     27
                      A                      A                      A
 Frequencies --    484.3140               484.6577               484.8362
 Red. masses --      2.9716                 2.9972                 3.0011
 Frc consts  --      0.4107                 0.4148                 0.4156
 IR Inten    --    185.0926               182.9419               183.2615

                     28                     29                     30
                      A                      A                      A
 Frequencies --    674.6003               675.1014               675.2388
 Red. masses --      1.1551                 1.1551                 1.1551
 Frc consts  --      0.3097                 0.3102                 0.3103
 IR Inten    --      0.0063                 0.0054                 0.0063

                     31                     32                     33
                      A                      A                      A
 Frequencies --    714.1753               714.4808               714.7185
 Red. masses --      1.3056                 1.3056                 1.3051
 Frc consts  --      0.3923                 0.3927                 0.3928
 IR Inten    --    203.8234               204.2991               204.7189

                     34                     35                     36
                      A                      A                      A
 Frequencies --   1656.4877              1656.6141              1656.6727
 Red. masses --      1.0967                 1.0967                 1.0967
 Frc consts  --      1.7731                 1.7733                 1.7734
 IR Inten    --    224.5405               224.2934               224.6707

                     37                     38                     39
                      A                      A                      A
 Frequencies --   1660.2151              1660.3327              1673.2909
 Red. masses --      1.0930                 1.0929                 1.0825
 Frc consts  --      1.7749                 1.7752                 1.7858
 IR Inten    --      0.0003                 0.0002                 0.0000

                     40                     41                     42
                      A                      A                      A
 Frequencies --   3691.3403              3691.4361              3691.9365
 Red. masses --      1.0438                 1.0438                 1.0437
 Frc consts  --      8.3800                 8.3804                 8.3818
 IR Inten    --      0.1137                 4.2195               665.5335

                     43                     44                     45
                      A                      A                      A
 Frequencies --   3691.9815              3692.1152              3715.3960
 Red. masses --      1.0437                 1.0437                 1.0456
 Frc consts  --      8.3820                 8.3826                 8.5040
 IR Inten    --    665.7092               661.2700                 0.0018

                     46                     47                     48
                      A                      A                      A
 Frequencies --   3771.4014              3771.4333              3771.5979
 Red. masses --      1.0861                 1.0861                 1.0861
 Frc consts  --      9.1021                 9.1022                 9.1031
 IR Inten    --      0.1479                 0.0408                 2.2862

                     49                     50                     51
                      A                      A                      A
 Frequencies --   3772.4717              3772.5064              3772.6767
 Red. masses --      1.0864                 1.0864                 1.0864
 Frc consts  --      9.1094                 9.1095                 9.1104
 IR Inten    --    614.6545               615.0620               613.2451

 - Thermochemistry -
 -------------------
 Temperature   298.150 Kelvin.  Pressure   1.00000 Atm.
 Atom     1 has atomic number 24 and mass  51.94051

 Molecular mass:   160.00390 amu.
 Principal axes and moments of inertia in atomic units:
                           1         2         3
     Eigenvalues --  1116.605271116.707761116.83431
           X            0.99897  -0.04458  -0.00821
           Y            0.04412   0.99776  -0.05036
           Z            0.01044   0.04995   0.99870
 This molecule is an asymmetric top.
 Rotational symmetry number  1.
 Warning -- assumption of classical behavior for rotation
           may cause significant error
 Rotational temperatures (Kelvin)      0.07757     0.07756     0.07755
 Rotational constants (GHZ):           1.61628     1.61613     1.61594
 Zero-point vibrational energy     406262.0 (Joules/Mol)
                                   97.09895 (Kcal/Mol)
 Warning -- explicit consideration of  27 degrees of freedom as
           vibrations may cause significant error
 Vibrational temperatures:    211.86   212.43   213.60   245.74   245.89
          (Kelvin)            246.69   302.89   303.02   303.42   369.55
                              370.59   472.39   472.65   473.42   576.97
                              577.29   646.24   646.88   647.31   647.59
                              647.64   647.88   658.57   693.04   696.82
                              697.31   697.57   970.60   971.32   971.52
                             1027.54  1027.98  1028.32  2383.32  2383.50
                             2383.58  2388.68  2388.85  2407.49  5311.02
                             5311.15  5311.87  5311.94  5312.13  5345.63
                             5426.21  5426.25  5426.49  5427.75  5427.80
                             5428.04

 Zero-point correction=                           0.154737 (Hartree/Particle)
 Thermal correction to Energy=                    0.169184
 Thermal correction to Enthalpy=                  0.170128
 Thermal correction to Gibbs Free Energy=         0.116236
 Sum of electronic and zero-point Energies=          -1501.245992
 Sum of electronic and thermal Energies=             -1501.231545
 Sum of electronic and thermal Enthalpies=           -1501.230601
 Sum of electronic and thermal Free Energies=        -1501.284493

                     E (Thermal)             CV                S
                      KCal/Mol        Cal/Mol-Kelvin    Cal/Mol-Kelvin
 Total                  106.164             54.023            113.426
 Electronic               0.000              0.000              2.755
 Translational            0.889              2.981             41.119
 Rotational               0.889              2.981             28.723
 Vibrational            104.387             48.062             40.830
 Vibration     1          0.617              1.906              2.708
 Vibration     2          0.617              1.905              2.702
 Vibration     3          0.618              1.904              2.692
 Vibration     4          0.626              1.878              2.427
 Vibration     5          0.626              1.878              2.426
 Vibration     6          0.626              1.878              2.419
 Vibration     7          0.643              1.825              2.039
 Vibration     8          0.643              1.825              2.038
 Vibration     9          0.643              1.824              2.036
 Vibration    10          0.666              1.751              1.683
 Vibration    11          0.667              1.750              1.678
 Vibration    12          0.712              1.619              1.268
 Vibration    13          0.712              1.619              1.267
 Vibration    14          0.712              1.617              1.265
 Vibration    15          0.767              1.468              0.959
 Vibration    16          0.767              1.467              0.958
 Vibration    17          0.808              1.363              0.798
 Vibration    18          0.808              1.362              0.797
 Vibration    19          0.809              1.361              0.796
 Vibration    20          0.809              1.361              0.795
 Vibration    21          0.809              1.361              0.795
 Vibration    22          0.809              1.360              0.795
 Vibration    23          0.816              1.344              0.773
 Vibration    24          0.838              1.291              0.706
 Vibration    25          0.840              1.285              0.699
 Vibration    26          0.841              1.284              0.698
 Vibration    27          0.841              1.284              0.697

 Normal termination of Gaussian 16 at Thu May 23 14:48:23 2024.
 Gaussian 16:  ES64L-G16RevC.02  7-Dec-2021

 ----------------------------------------------------------------------
 #p HSEH1PBE scf=(maxcycles=500,xqc,maxconventional=50) scrf=(cpcm,solv
 ent=water) geom=allcheck guess=read chkbasis
 ----------------------------------------------------------------------

 Structure from the checkpoint file:  "Cr_3_HSE06.chk_solvated"
 -----
 Title
 -----
 Charge =  3 Multiplicity = 4

                         Standard orientation:
 ---------------------------------------------------------------------
 Center     Atomic      Atomic             Coordinates (Angstroms)
 Number     Number       Type             X           Y           Z
 ---------------------------------------------------------------------
      1         24           0       -0.000016    0.000008    0.000025
      2          8           0       -1.395123    0.106470   -1.421813
      3          1           0       -2.209188   -0.423996   -1.465217
      4          8           0        0.967396   -1.391085   -1.052744
      5          1           0        1.795287   -1.831310   -0.794335
      6          8           0        1.048035    1.425650   -0.921112
      7          1           0        0.969097    2.383003   -0.768739
      8          8           0        1.394986   -0.106150    1.421986
      9          1           0        1.383165   -0.699593    2.192480
     10          8           0       -0.967449    1.391082    1.052748
     11          1           0       -1.791325    1.836702    0.790821
     12          8           0       -1.047814   -1.425991    0.920891
     13          1           0       -0.966009   -2.383451    0.770707
     14          1           0       -1.731053   -1.286744    1.598963
     15          1           0        0.694693   -1.748870   -1.915065
     16          1           0       -1.381658    0.697734   -2.193953
     17          1           0       -0.698789    1.743492    1.918534
     18          1           0        1.728702    1.286073   -1.601698
     19          1           0        2.207219    0.426962    1.467259
 ---------------------------------------------------------------------

 SCF Done:  E(UHSEH1PBE) =  -1502.04333072     A.U. after    9 cycles

 The electronic state is 4-A.
 Alpha  occ. eigenvalues -- -216.19626 -25.05051 -21.29994 -21.29994 -21.29993
 Alpha  occ. eigenvalues --  -19.33151 -19.33151 -19.33145 -19.33145 -19.33143
 Alpha  occ. eigenvalues --  -19.33143  -3.16582  -2.09616  -2.09614  -2.09613
 Alpha  occ. eigenvalues --   -1.14832  -1.13622  -1.13615  -1.13612  -1.13526
 Alpha  occ. eigenvalues --   -1.13520  -0.64620  -0.64608  -0.64606  -0.64191
 Alpha  occ. eigenvalues --   -0.64184  -0.64182  -0.60086  -0.57250  -0.57246
 Alpha  occ. eigenvalues --   -0.54101  -0.54096  -0.54093  -0.47409  -0.47395
 Alpha  occ. eigenvalues --   -0.47384  -0.43542  -0.43535  -0.43533  -0.39277
 Alpha  occ. eigenvalues --   -0.39271  -0.39267
 Alpha virt. eigenvalues --   -0.18258  -0.18256  -0.06205  -0.02041  -0.02037
 Alpha virt. eigenvalues --   -0.02032   0.03286   0.03895   0.03902   0.06946
 Alpha virt. eigenvalues --    0.06956   0.06961   0.07492   0.07496   0.07500

  Beta  occ. eigenvalues -- -216.19597 -25.00288 -21.25939 -21.25939 -21.25939
  Beta  occ. eigenvalues --  -19.33132 -19.33132 -19.33126 -19.33126 -19.33123
  Beta  occ. eigenvalues --  -19.33123  -3.02686  -1.94720  -1.94720  -1.94719
  Beta  occ. eigenvalues --   -1.14705  -1.13497  -1.13490  -1.13487  -1.13422
  Beta  occ. eigenvalues --   -1.13416  -0.64287  -0.64275  -0.64274  -0.64117
  Beta  occ. eigenvalues --   -0.64109  -0.64107  -0.59732  -0.56631  -0.56626
  Beta  occ. eigenvalues --   -0.54197  -0.54192  -0.54188  -0.43770  -0.43755
  Beta  occ. eigenvalues --   -0.43745  -0.43032  -0.43024  -0.43022
  Beta virt. eigenvalues --   -0.15749  -0.15742  -0.15739  -0.12737  -0.12735
  Beta virt. eigenvalues --   -0.06015  -0.01942  -0.01939  -0.01934   0.03379
  Beta virt. eigenvalues --    0.04106   0.04114   0.07122   0.07132   0.07137

 Mulliken charges and spin densities:
               1          2
     1  Cr   1.651183   3.024543
     2  O   -0.685243  -0.005452
     3  H    0.455084   0.000673
     4  O   -0.685562  -0.005435
     5  H    0.455089   0.000673
     6  O   -0.685300  -0.005417
     7  H    0.455017   0.000673
     8  O   -0.685249  -0.005451
     9  H    0.455061   0.000668
    10  O   -0.685516  -0.005425
    11  H    0.455078   0.000673
    12  O   -0.685290  -0.005415
    13  H    0.455004   0.000672
    14  H    0.455157   0.000670
    15  H    0.455107   0.000670
    16  H    0.455057   0.000668
    17  H    0.455095   0.000670
    18  H    0.455147   0.000670
    19  H    0.455081   0.000673
 Sum of Mulliken charges =   3.00000   3.00000

 Dipole moment (field-independent basis, Debye):
    X=              0.0001    Y=              0.0002    Z=             -0.0001  Tot=              0.0003
 Quadrupole moment (field-independent basis, Debye-Ang):
   XX=             -7.9710   YY=             -7.9671   ZZ=             -7.9642
   XY=             -0.0004   XZ=              0.0032   YZ=             -0.0062

 Normal termination of Gaussian 16 at Thu May 23 14:49:14 2024.
