 Gaussian 16, Revision C.02,

 ----------------------------------------------------------------------
 #p PBE1PBE empiricaldispersion=gd3 6-31+G(2df,p) opt=(cartesian,calcal
 l,maxcycles=500) freq scf=(maxcycles=500,xqc,maxconventional=50)
 ----------------------------------------------------------------------

 -----
 Title
 -----
 Symbolic Z-matrix:
 Charge =  3 Multiplicity = 4

 SCF Done:  E(UPBE1PBE) =  -1501.16050716     A.U. after   17 cycles
 SCF Done:  E(UPBE1PBE) =  -1501.18430497     A.U. after   13 cycles
 SCF Done:  E(UPBE1PBE) =  -1501.22415614     A.U. after   14 cycles
 SCF Done:  E(UPBE1PBE) =  -1501.25923069     A.U. after   16 cycles
 SCF Done:  E(UPBE1PBE) =  -1501.29754284     A.U. after   16 cycles
 SCF Done:  E(UPBE1PBE) =  -1501.32633192     A.U. after   17 cycles
 SCF Done:  E(UPBE1PBE) =  -1501.32292461     A.U. after   16 cycles
 SCF Done:  E(UPBE1PBE) =  -1501.33284125     A.U. after   16 cycles
 SCF Done:  E(UPBE1PBE) =  -1501.33143753     A.U. after   16 cycles
 SCF Done:  E(UPBE1PBE) =  -1501.33840147     A.U. after   15 cycles
 SCF Done:  E(UPBE1PBE) =  -1501.34741683     A.U. after   15 cycles
 SCF Done:  E(UPBE1PBE) =  -1501.34846836     A.U. after   15 cycles
 SCF Done:  E(UPBE1PBE) =  -1501.34978671     A.U. after   15 cycles
 SCF Done:  E(UPBE1PBE) =  -1501.34983789     A.U. after   15 cycles
 SCF Done:  E(UPBE1PBE) =  -1501.35032838     A.U. after   14 cycles
 SCF Done:  E(UPBE1PBE) =  -1501.35040535     A.U. after   14 cycles
 SCF Done:  E(UPBE1PBE) =  -1501.35041646     A.U. after   12 cycles
 SCF Done:  E(UPBE1PBE) =  -1501.35042374     A.U. after   10 cycles
 Optimization completed.
    -- Stationary point found.
 Normal termination of Gaussian 16 at Thu May 23 14:13:35 2024.

 ----------------------------------------------------------------------
 #P Geom=AllCheck Guess=TCheck SCRF=Check GenChk UPBE1PBE/6-31+G(2df,p)
  Freq
 ----------------------------------------------------------------------

 Structure from the checkpoint file:  "Cr_3_PBE0.chk"
 -----
 Title
 -----
 Charge =  3 Multiplicity = 4

 SCF Done:  E(UPBE1PBE) =  -1501.35042374     A.U. after    1 cycles

  Exact polarizability:      55.605       0.001      55.601      -0.001       0.002      55.600
 Approx polarizability:      68.784       0.001      68.781       0.000       0.000      68.779

                      1                      2                      3
                      A                      A                      A
 Frequencies --    148.6385               149.1755               149.5988
 Red. masses --      5.4166                 5.4056                 5.4317
 Frc consts  --      0.0705                 0.0709                 0.0716
 IR Inten    --      9.1406                 9.1074                 9.0758

                      4                      5                      6
                      A                      A                      A
 Frequencies --    170.8878               171.2032               171.4832
 Red. masses --      5.2257                 5.2251                 5.2301
 Frc consts  --      0.0899                 0.0902                 0.0906
 IR Inten    --      0.0000                 0.0000                 0.0000

                      7                      8                      9
                      A                      A                      A
 Frequencies --    210.5516               210.7730               210.9410
 Red. masses --      4.7956                 4.8036                 4.7844
 Frc consts  --      0.1253                 0.1257                 0.1254
 IR Inten    --      1.1045                 1.1279                 1.0921

                     10                     11                     12
                      A                      A                      A
 Frequencies --    259.2940               259.8709               329.3190
 Red. masses --      1.0078                 1.0078                 1.0396
 Frc consts  --      0.0399                 0.0401                 0.0664
 IR Inten    --      0.0009                 0.0005                 0.0000

                     13                     14                     15
                      A                      A                      A
 Frequencies --    329.8329               329.9473               401.6201
 Red. masses --      1.0394                 1.0393                 5.7297
 Frc consts  --      0.0666                 0.0667                 0.5445
 IR Inten    --      0.0000                 0.0000                 0.0000

                     16                     17                     18
                      A                      A                      A
 Frequencies --    401.6334               446.4279               446.5557
 Red. masses --      5.7300                 1.0867                 1.2661
 Frc consts  --      0.5446                 0.1276                 0.1488
 IR Inten    --      0.0000                 1.0017               323.5231

                     19                     20                     21
                      A                      A                      A
 Frequencies --    446.5826               446.7354               446.8126
 Red. masses --      1.0912                 1.2719                 1.0867
 Frc consts  --      0.1282                 0.1496                 0.1278
 IR Inten    --     10.6803               333.9565                 1.2298

                     22                     23                     24
                      A                      A                      A
 Frequencies --    446.8675               459.5081               483.7954
 Red. masses --      1.2756                 5.9709                 3.0413
 Frc consts  --      0.1501                 0.7428                 0.4194
 IR Inten    --    333.2184                 0.0000               166.0462

                     25                     26                     27
                      A                      A                      A
 Frequencies --    483.8354               484.0594               484.1615
 Red. masses --      2.9876                 1.1723                 2.3265
 Frc consts  --      0.4121                 0.1618                 0.3213
 IR Inten    --    167.1009                34.8074               141.2774

                     28                     29                     30
                      A                      A                      A
 Frequencies --    673.0600               673.2425               673.2630
 Red. masses --      1.1576                 1.1575                 1.1575
 Frc consts  --      0.3090                 0.3091                 0.3091
 IR Inten    --      0.0000                 0.0000                 0.0000

                     31                     32                     33
                      A                      A                      A
 Frequencies --    712.6083               712.6641               712.7543
 Red. masses --      1.3104                 1.3099                 1.3097
 Frc consts  --      0.3921                 0.3920                 0.3920
 IR Inten    --    204.7698               204.7234               204.9964

                     34                     35                     36
                      A                      A                      A
 Frequencies --   1655.4823              1655.5536              1655.5663
 Red. masses --      1.0974                 1.0974                 1.0974
 Frc consts  --      1.7721                 1.7722                 1.7723
 IR Inten    --    224.9584               224.9067               224.9525

                     37                     38                     39
                      A                      A                      A
 Frequencies --   1659.0768              1659.1355              1672.3240
 Red. masses --      1.0936                 1.0936                 1.0832
 Frc consts  --      1.7735                 1.7736                 1.7849
 IR Inten    --      0.0000                 0.0000                 0.0000

                     40                     41                     42
                      A                      A                      A
 Frequencies --   3698.2242              3698.2370              3698.8392
 Red. masses --      1.0438                 1.0438                 1.0437
 Frc consts  --      8.4113                 8.4113                 8.4133
 IR Inten    --      0.0149                 0.2010               662.8570

                     43                     44                     45
                      A                      A                      A
 Frequencies --   3698.8451              3698.8654              3722.1586
 Red. masses --      1.0437                 1.0437                 1.0456
 Frc consts  --      8.4133                 8.4134                 8.5353
 IR Inten    --    663.2716               663.1260                 0.0001

                     46                     47                     48
                      A                      A                      A
 Frequencies --   3778.8980              3778.9048              3778.9169
 Red. masses --      1.0862                 1.0862                 1.0862
 Frc consts  --      9.1389                 9.1389                 9.1389
 IR Inten    --      0.0032                 0.0010                 0.0989

                     49                     50                     51
                      A                      A                      A
 Frequencies --   3779.9684              3779.9747              3779.9880
 Red. masses --      1.0865                 1.0865                 1.0865
 Frc consts  --      9.1462                 9.1462                 9.1463
 IR Inten    --    616.5425               616.0967               616.2937

 - Thermochemistry -
 -------------------
 Temperature   298.150 Kelvin.  Pressure   1.00000 Atm.
 Atom     1 has atomic number 24 and mass  51.94051

 Molecular mass:   160.00390 amu.
 Principal axes and moments of inertia in atomic units:
                           1         2         3
     Eigenvalues --  1113.872971114.057401114.18751
           X            0.99982   0.01812   0.00492
           Y           -0.01818   0.99977   0.01134
           Z           -0.00472  -0.01143   0.99992
 This molecule is an asymmetric top.
 Rotational symmetry number  1.
 Warning -- assumption of classical behavior for rotation
           may cause significant error
 Rotational temperatures (Kelvin)      0.07776     0.07775     0.07774
 Rotational constants (GHZ):           1.62024     1.61997     1.61978
 Zero-point vibrational energy     406650.6 (Joules/Mol)
                                   97.19181 (Kcal/Mol)
 Warning -- explicit consideration of  27 degrees of freedom as
           vibrations may cause significant error
 Vibrational temperatures:    213.86   214.63   215.24   245.87   246.32
          (Kelvin)            246.73   302.94   303.26   303.50   373.07
                              373.90   473.82   474.56   474.72   577.84
                              577.86   642.31   642.49   642.53   642.75
                              642.86   642.94   661.13   696.07   696.13
                              696.45   696.60   968.38   968.65   968.68
                             1025.28  1025.36  1025.49  2381.87  2381.97
                             2381.99  2387.04  2387.13  2406.10  5320.92
                             5320.94  5321.80  5321.81  5321.84  5355.36
                             5436.99  5437.00  5437.02  5438.53  5438.54
                             5438.56

 Zero-point correction=                           0.154885 (Hartree/Particle)
 Thermal correction to Energy=                    0.169332
 Thermal correction to Enthalpy=                  0.170276
 Thermal correction to Gibbs Free Energy=         0.116408
 Sum of electronic and zero-point Energies=          -1501.195539
 Sum of electronic and thermal Energies=             -1501.181092
 Sum of electronic and thermal Enthalpies=           -1501.180148
 Sum of electronic and thermal Free Energies=        -1501.234016

                     E (Thermal)             CV                S
                      KCal/Mol        Cal/Mol-Kelvin    Cal/Mol-Kelvin
 Total                  106.257             54.061            113.374
 Electronic               0.000              0.000              2.755
 Translational            0.889              2.981             41.119
 Rotational               0.889              2.981             28.715
 Vibrational            104.480             48.099             40.785
 Vibration     1          0.618              1.904              2.690
 Vibration     2          0.618              1.904              2.683
 Vibration     3          0.618              1.903              2.677
 Vibration     4          0.626              1.878              2.426
 Vibration     5          0.626              1.878              2.422
 Vibration     6          0.626              1.878              2.419
 Vibration     7          0.643              1.825              2.039
 Vibration     8          0.643              1.824              2.037
 Vibration     9          0.643              1.824              2.036
 Vibration    10          0.668              1.747              1.667
 Vibration    11          0.668              1.746              1.663
 Vibration    12          0.712              1.617              1.263
 Vibration    13          0.713              1.616              1.261
 Vibration    14          0.713              1.616              1.260
 Vibration    15          0.767              1.467              0.957
 Vibration    16          0.767              1.467              0.957
 Vibration    17          0.806              1.369              0.807
 Vibration    18          0.806              1.368              0.806
 Vibration    19          0.806              1.368              0.806
 Vibration    20          0.806              1.368              0.806
 Vibration    21          0.806              1.368              0.805
 Vibration    22          0.806              1.368              0.805
 Vibration    23          0.817              1.340              0.768
 Vibration    24          0.840              1.286              0.700
 Vibration    25          0.840              1.286              0.700
 Vibration    26          0.840              1.285              0.699
 Vibration    27          0.840              1.285              0.699

 Optimization completed.
    -- Stationary point found.
 Normal termination of Gaussian 16 at Thu May 23 14:15:33 2024.
 Gaussian 16:  ES64L-G16RevC.02  7-Dec-2021

 ----------------------------------------------------------------------
 #p PBE1PBE empiricaldispersion=gd3 scf=(maxcycles=500,xqc,maxconventio
 nal=50) scrf=(cpcm,solvent=water) geom=allcheck guess=read chkbasis
 ----------------------------------------------------------------------

 Structure from the checkpoint file:  "Cr_3_PBE0.chk_solvated"
 -----
 Title
 -----
 Charge =  3 Multiplicity = 4

                         Standard orientation:
 ---------------------------------------------------------------------
 Center     Atomic      Atomic             Coordinates (Angstroms)
 Number     Number       Type             X           Y           Z
 ---------------------------------------------------------------------
      1         24           0        0.000000   -0.000000    0.000000
      2          8           0        1.168496    1.059697   -1.217017
      3          1           0        1.830930    0.699135   -1.830822
      4          8           0       -0.829167    1.683282    0.669735
      5          1           0       -0.520439    2.211384    1.425627
      6          8           0       -1.384889   -0.113662   -1.427822
      7          1           0       -1.321054    0.271700   -2.318328
      8          8           0       -1.168497   -1.059698    1.217016
      9          1           0       -1.176397   -2.028354    1.301981
     10          8           0        0.829167   -1.683282   -0.669735
     11          1           0        1.613566   -2.121461   -0.297857
     12          8           0        1.384889    0.113663    1.427823
     13          1           0        2.243348    0.564872    1.356861
     14          1           0        1.321054   -0.271698    2.318328
     15          1           0       -1.613575    2.121452    0.297867
     16          1           0        1.176392    2.028353   -1.301986
     17          1           0        0.520446   -2.211377   -1.425635
     18          1           0       -2.243348   -0.564878   -1.356862
     19          1           0       -1.830925   -0.699135    1.830828
 ---------------------------------------------------------------------

 SCF Done:  E(UPBE1PBE) =  -1501.99342417     A.U. after    9 cycles

 The electronic state is 4-A.
 Alpha  occ. eigenvalues -- -216.20550 -25.06567 -21.32008 -21.32008 -21.32008
 Alpha  occ. eigenvalues --  -19.34555 -19.34555 -19.34555 -19.34555 -19.34554
 Alpha  occ. eigenvalues --  -19.34554  -3.18059  -2.11208  -2.11207  -2.11207
 Alpha  occ. eigenvalues --   -1.16508  -1.15281  -1.15280  -1.15279  -1.15189
 Alpha  occ. eigenvalues --   -1.15188  -0.66176  -0.66175  -0.66174  -0.65741
 Alpha  occ. eigenvalues --   -0.65740  -0.65739  -0.61656  -0.58835  -0.58835
 Alpha  occ. eigenvalues --   -0.55609  -0.55605  -0.55604  -0.48980  -0.48979
 Alpha  occ. eigenvalues --   -0.48977  -0.45065  -0.45065  -0.45063  -0.40816
 Alpha  occ. eigenvalues --   -0.40816  -0.40815
 Alpha virt. eigenvalues --   -0.16764  -0.16763  -0.04966  -0.00878  -0.00875
 Alpha virt. eigenvalues --   -0.00873   0.03709   0.05301   0.05303   0.08283
 Alpha virt. eigenvalues --    0.08286   0.08287   0.08644   0.08646   0.08648

  Beta  occ. eigenvalues -- -216.20512 -25.01663 -21.27858 -21.27858 -21.27858
  Beta  occ. eigenvalues --  -19.34542 -19.34542 -19.34541 -19.34541 -19.34541
  Beta  occ. eigenvalues --  -19.34541  -3.04108  -1.96187  -1.96186  -1.96185
  Beta  occ. eigenvalues --   -1.16384  -1.15162  -1.15161  -1.15161  -1.15092
  Beta  occ. eigenvalues --   -1.15091  -0.65837  -0.65836  -0.65836  -0.65666
  Beta  occ. eigenvalues --   -0.65665  -0.65664  -0.61288  -0.58179  -0.58178
  Beta  occ. eigenvalues --   -0.55714  -0.55711  -0.55709  -0.45293  -0.45292
  Beta  occ. eigenvalues --   -0.45290  -0.44555  -0.44554  -0.44552
  Beta virt. eigenvalues --   -0.14063  -0.14061  -0.14060  -0.11052  -0.11052
  Beta virt. eigenvalues --   -0.04788  -0.00789  -0.00786  -0.00784   0.03795
  Beta virt. eigenvalues --    0.05522   0.05523   0.08462   0.08464   0.08465

 Mulliken charges and spin densities:
               1          2
     1  Cr   1.694818   3.036771
     2  O   -0.693169  -0.007454
     3  H    0.455394   0.000670
     4  O   -0.693216  -0.007485
     5  H    0.455400   0.000670
     6  O   -0.693255  -0.007468
     7  H    0.455423   0.000669
     8  O   -0.693169  -0.007454
     9  H    0.455317   0.000670
    10  O   -0.693216  -0.007485
    11  H    0.455367   0.000671
    12  O   -0.693255  -0.007468
    13  H    0.455330   0.000672
    14  H    0.455423   0.000669
    15  H    0.455366   0.000671
    16  H    0.455317   0.000670
    17  H    0.455400   0.000670
    18  H    0.455331   0.000672
    19  H    0.455394   0.000670
 Sum of Mulliken charges =   3.00000   3.00000

 Dipole moment (field-independent basis, Debye):
    X=             -0.0000    Y=             -0.0000    Z=              0.0000  Tot=              0.0000
 Quadrupole moment (field-independent basis, Debye-Ang):
   XX=             -8.0299   YY=             -8.0195   ZZ=             -8.0152
   XY=              0.0004   XZ=              0.0002   YZ=              0.0007

 Normal termination of Gaussian 16 at Thu May 23 14:15:51 2024.
