 Gaussian 16, Revision C.02,

 ----------------------------------------------------------------------
 #p BLYP empiricaldispersion=gd3 6-31+G(2df,p) opt=(cartesian,calcall,m
 axcycles=500) freq scf=(maxcycles=500,xqc,maxconventional=50)
 ----------------------------------------------------------------------

 -----
 Title
 -----
 Symbolic Z-matrix:
 Charge =  2 Multiplicity = 6

 SCF Done:  E(UB-LYP) =  -1608.64287242     A.U. after   51 cycles
 SCF Done:  E(UB-LYP) =  -1608.74747101     a.u. after   50 cycles
 SCF Done:  E(UB-LYP) =  -1608.79112509     A.U. after   20 cycles
 SCF Done:  E(UB-LYP) =  -1608.84441364     A.U. after   16 cycles
 SCF Done:  E(UB-LYP) =  -1608.87792608     A.U. after   16 cycles
 SCF Done:  E(UB-LYP) =  -1608.92295506     A.U. after   13 cycles
 SCF Done:  E(UB-LYP) =  -1608.96233091     A.U. after   14 cycles
 SCF Done:  E(UB-LYP) =  -1609.01196016     A.U. after   14 cycles
 SCF Done:  E(UB-LYP) =  -1609.02541157     A.U. after   14 cycles
 SCF Done:  E(UB-LYP) =  -1609.03238258     A.U. after   13 cycles
 SCF Done:  E(UB-LYP) =  -1609.08708770     A.U. after    6 cycles
 SCF Done:  E(UB-LYP) =  -1609.08709246     A.U. after    2 cycles
 SCF Done:  E(UB-LYP) =  -1609.08709264     A.U. after    1 cycles
 SCF Done:  E(UB-LYP) =  -1609.08709152     A.U. after    8 cycles
 SCF Done:  E(UB-LYP) =  -1609.08709563     A.U. after    8 cycles
 SCF Done:  E(UB-LYP) =  -1609.08708212     A.U. after    7 cycles
 SCF Done:  E(UB-LYP) =  -1609.08708356     A.U. after    7 cycles
 SCF Done:  E(UB-LYP) =  -1609.08709419     A.U. after    4 cycles
 Optimization completed.
    -- Stationary point found.
 Normal termination of Gaussian 16 at Thu May 23 14:50:39 2024.

 ----------------------------------------------------------------------
 #P Geom=AllCheck Guess=TCheck SCRF=Check GenChk UBLYP/6-31+G(2df,p) Fr
 eq
 ----------------------------------------------------------------------

 Structure from the checkpoint file:  "Mn_2_BLYP.chk"
 -----
 Title
 -----
 Charge =  2 Multiplicity = 6

 SCF Done:  E(UB-LYP) =  -1609.08709419     A.U. after    1 cycles

  Exact polarizability:      63.561       0.003      63.553       0.002      -0.003      63.550
 Approx polarizability:      88.418       0.005      88.411      -0.000      -0.000      88.419

                      1                      2                      3
                      A                      A                      A
 Frequencies --     67.1258                67.7468                68.1678
 Red. masses --      4.6474                 4.6281                 4.6494
 Frc consts  --      0.0123                 0.0125                 0.0127
 IR Inten    --      3.1867                 3.1694                 3.2200

                      4                      5                      6
                      A                      A                      A
 Frequencies --     83.7339                84.0465                84.1304
 Red. masses --      4.8993                 4.9100                 4.8914
 Frc consts  --      0.0202                 0.0204                 0.0204
 IR Inten    --      0.0005                 0.0006                 0.0011

                      7                      8                      9
                      A                      A                      A
 Frequencies --     99.8445               100.0762               100.4978
 Red. masses --      5.6641                 5.6621                 5.6668
 Frc consts  --      0.0333                 0.0334                 0.0337
 IR Inten    --      0.1866                 0.1845                 0.1787

                     10                     11                     12
                      A                      A                      A
 Frequencies --    212.5298               213.7528               235.5129
 Red. masses --      1.0079                 1.0079                 5.8713
 Frc consts  --      0.0268                 0.0271                 0.1919
 IR Inten    --      0.0082                 0.0095                 0.0000

                     13                     14                     15
                      A                      A                      A
 Frequencies --    235.6333               268.6711               269.5720
 Red. masses --      5.8712                 1.0379                 1.0379
 Frc consts  --      0.1921                 0.0441                 0.0444
 IR Inten    --      0.0000                 0.0071                 0.0206

                     16                     17                     18
                      A                      A                      A
 Frequencies --    270.6897               304.1468               304.3129
 Red. masses --      1.0383                 3.5042                 3.4999
 Frc consts  --      0.0448                 0.1910                 0.1910
 IR Inten    --      0.0809                28.4521                28.6532

                     19                     20                     21
                      A                      A                      A
 Frequencies --    304.6956               318.3313               347.2295
 Red. masses --      3.5644                 6.0866                 1.0899
 Frc consts  --      0.1950                 0.3634                 0.0774
 IR Inten    --     26.6541                 0.0001                 0.1104

                     22                     23                     24
                      A                      A                      A
 Frequencies --    347.3391               348.1326               359.0447
 Red. masses --      1.0905                 1.0961                 1.3368
 Frc consts  --      0.0775                 0.0783                 0.1015
 IR Inten    --      0.1374                 4.9372               356.3287

                     25                     26                     27
                      A                      A                      A
 Frequencies --    359.2532               360.4152               395.5122
 Red. masses --      1.3363                 1.3214                 1.0078
 Frc consts  --      0.1016                 0.1011                 0.0929
 IR Inten    --    356.1185               352.3471                 0.0062

                     28                     29                     30
                      A                      A                      A
 Frequencies --    506.1121               506.4274               507.1594
 Red. masses --      1.1657                 1.1655                 1.1654
 Frc consts  --      0.1759                 0.1761                 0.1766
 IR Inten    --      0.0411                 0.0293                 1.7944

                     31                     32                     33
                      A                      A                      A
 Frequencies --    518.2945               518.5637               519.3830
 Red. masses --      1.2136                 1.2131                 1.2113
 Frc consts  --      0.1921                 0.1922                 0.1925
 IR Inten    --    242.1652               242.7561               239.5797

                     34                     35                     36
                      A                      A                      A
 Frequencies --   1605.8179              1605.9019              1606.0739
 Red. masses --      1.0875                 1.0875                 1.0876
 Frc consts  --      1.6522                 1.6524                 1.6529
 IR Inten    --    188.2055               188.2285               171.4070

                     37                     38                     39
                      A                      A                      A
 Frequencies --   1606.5618              1606.7798              1614.3983
 Red. masses --      1.0888                 1.0887                 1.0809
 Frc consts  --      1.6558                 1.6561                 1.6599
 IR Inten    --      0.0879                16.8236                 0.0615

                     40                     41                     42
                      A                      A                      A
 Frequencies --   3619.0067              3620.6710              3620.8655
 Red. masses --      1.0436                 1.0436                 1.0437
 Frc consts  --      8.0533                 8.0602                 8.0618
 IR Inten    --     87.8526                27.7245               148.5328

                     43                     44                     45
                      A                      A                      A
 Frequencies --   3621.1054              3621.1458              3624.8996
 Red. masses --      1.0436                 1.0437                 1.0443
 Frc consts  --      8.0626                 8.0631                 8.0846
 IR Inten    --     98.0662               155.9969                 3.0643

                     46                     47                     48
                      A                      A                      A
 Frequencies --   3709.2480              3711.1048              3711.4286
 Red. masses --      1.0837                 1.0837                 1.0837
 Frc consts  --      8.7851                 8.7937                 8.7952
 IR Inten    --    140.2434                13.7385                 4.7791

                     49                     50                     51
                      A                      A                      A
 Frequencies --   3711.4635              3711.7657              3711.7805
 Red. masses --      1.0838                 1.0838                 1.0838
 Frc consts  --      8.7961                 8.7975                 8.7973
 IR Inten    --    308.5363               312.8665               186.6411

 - Thermochemistry -
 -------------------
 Temperature   298.150 Kelvin.  Pressure   1.00000 Atm.
 Atom     1 has atomic number 25 and mass  54.93805

 Molecular mass:   163.00143 amu.
 Principal axes and moments of inertia in atomic units:
                           1         2         3
     Eigenvalues --  1349.051321349.607601350.07221
           X            0.99999  -0.00364   0.00176
           Y            0.00366   0.99995  -0.00950
           Z           -0.00173   0.00951   0.99995
 This molecule is an asymmetric top.
 Rotational symmetry number  1.
 Warning -- assumption of classical behavior for rotation
           may cause significant error
 Rotational temperatures (Kelvin)      0.06420     0.06418     0.06416
 Rotational constants (GHZ):           1.33779     1.33723     1.33677
 Zero-point vibrational energy     376381.7 (Joules/Mol)
                                   89.95738 (Kcal/Mol)
 Warning -- explicit consideration of  33 degrees of freedom as
           vibrations may cause significant error
 Vibrational temperatures:     96.58    97.47    98.08   120.47   120.92
          (Kelvin)            121.04   143.65   143.99   144.59   305.78
                              307.54   338.85   339.02   386.56   387.85
                              389.46   437.60   437.84   438.39   458.01
                              499.59   499.74   500.89   516.59   516.89
                              518.56   569.05   728.18   728.64   729.69
                              745.71   746.10   747.28  2310.41  2310.53
                             2310.78  2311.48  2311.80  2322.76  5206.94
                             5209.34  5209.62  5209.96  5210.02  5215.42
                             5336.78  5339.45  5339.92  5339.97  5340.40
                             5340.42

 Zero-point correction=                           0.143356 (Hartree/Particle)
 Thermal correction to Energy=                    0.161966
 Thermal correction to Enthalpy=                  0.162910
 Thermal correction to Gibbs Free Energy=         0.097288
 Sum of electronic and zero-point Energies=          -1608.943738
 Sum of electronic and thermal Energies=             -1608.925128
 Sum of electronic and thermal Enthalpies=           -1608.924184
 Sum of electronic and thermal Free Energies=        -1608.989806

                     E (Thermal)             CV                S
                      KCal/Mol        Cal/Mol-Kelvin    Cal/Mol-Kelvin
 Total                  101.635             61.160            138.113
 Electronic               0.000              0.000              3.561
 Translational            0.889              2.981             41.174
 Rotational               0.889              2.981             29.287
 Vibrational             99.858             55.199             64.091
 Vibration     1          0.598              1.970              4.236
 Vibration     2          0.598              1.970              4.218
 Vibration     3          0.598              1.969              4.206
 Vibration     4          0.601              1.960              3.801
 Vibration     5          0.601              1.960              3.794
 Vibration     6          0.601              1.960              3.792
 Vibration     7          0.604              1.949              3.457
 Vibration     8          0.604              1.949              3.453
 Vibration     9          0.604              1.949              3.445
 Vibration    10          0.644              1.822              2.022
 Vibration    11          0.644              1.820              2.011
 Vibration    12          0.655              1.786              1.837
 Vibration    13          0.655              1.786              1.836
 Vibration    14          0.673              1.731              1.605
 Vibration    15          0.674              1.729              1.599
 Vibration    16          0.674              1.727              1.592
 Vibration    17          0.695              1.666              1.394
 Vibration    18          0.695              1.666              1.393
 Vibration    19          0.696              1.665              1.391
 Vibration    20          0.705              1.639              1.319
 Vibration    21          0.725              1.581              1.179
 Vibration    22          0.725              1.581              1.178
 Vibration    23          0.726              1.579              1.175
 Vibration    24          0.734              1.557              1.126
 Vibration    25          0.734              1.556              1.125
 Vibration    26          0.735              1.554              1.120
 Vibration    27          0.762              1.480              0.979
 Vibration    28          0.861              1.236              0.643
 Vibration    29          0.862              1.236              0.642
 Vibration    30          0.862              1.234              0.640
 Vibration    31          0.873              1.209              0.614
 Vibration    32          0.874              1.209              0.613
 Vibration    33          0.874              1.207              0.611

 Normal termination of Gaussian 16 at Thu May 23 14:52:04 2024.
 Gaussian 16:  ES64L-G16RevC.02  7-Dec-2021

 ----------------------------------------------------------------------
 #p BLYP empiricaldispersion=gd3 scf=(maxcycles=500,xqc,maxconventional
 =50) scrf=(cpcm,solvent=water) geom=allcheck guess=read chkbasis
 ----------------------------------------------------------------------

 Structure from the checkpoint file:  "Mn_2_BLYP.chk_solvated"
 -----
 Title
 -----
 Charge =  2 Multiplicity = 6

                         Standard orientation:
 ---------------------------------------------------------------------
 Center     Atomic      Atomic             Coordinates (Angstroms)
 Number     Number       Type             X           Y           Z
 ---------------------------------------------------------------------
      1         25           0       -0.000318    0.000046    0.000256
      2          8           0        1.553740   -0.460408   -1.491388
      3          1           0        2.080313    0.184638   -2.003175
      4          8           0       -1.528319   -0.015039   -1.585965
      5          1           0       -2.485724    0.146680   -1.474594
      6          8           0       -0.321683   -2.153819    0.329791
      7          1           0        0.138441   -2.719242    0.980787
      8          8           0       -1.554482    0.461292    1.491226
      9          1           0       -1.850694    1.350380    1.768753
     10          8           0        1.528640    0.014280    1.585675
     11          1           0        2.486496   -0.143926    1.472157
     12          8           0        0.322632    2.153648   -0.329936
     13          1           0       -0.133720    2.718362   -0.984150
     14          1           0        0.949850    2.729487    0.149876
     15          1           0       -1.380382   -0.184191   -2.537103
     16          1           0        1.849888   -1.349259   -1.769690
     17          1           0        1.381705    0.178614    2.538097
     18          1           0       -0.951943   -2.729054   -0.146712
     19          1           0       -2.080491   -0.183279    2.004114
 ---------------------------------------------------------------------

 SCF Done:  E(UB-LYP) =  -1609.36037062     A.U. after    8 cycles

 The electronic state is 6-A.
 Alpha  occ. eigenvalues -- -234.29246 -26.92640 -23.08629 -23.08628 -23.08628
 Alpha  occ. eigenvalues --  -18.86344 -18.86343 -18.86342 -18.86341 -18.86341
 Alpha  occ. eigenvalues --  -18.86341  -3.11255  -2.01622  -2.01622  -2.01621
 Alpha  occ. eigenvalues --   -0.97626  -0.97171  -0.97171  -0.97167  -0.97055
 Alpha  occ. eigenvalues --   -0.97053  -0.52674  -0.52673  -0.52670  -0.52611
 Alpha  occ. eigenvalues --   -0.52611  -0.52607  -0.45910  -0.43142  -0.43142
 Alpha  occ. eigenvalues --   -0.41925  -0.41923  -0.41921  -0.32708  -0.32702
 Alpha  occ. eigenvalues --   -0.32700  -0.31815  -0.31813  -0.31812  -0.25570
 Alpha  occ. eigenvalues --   -0.25570  -0.25568  -0.21924  -0.21923
 Alpha virt. eigenvalues --   -0.07281  -0.02993  -0.02990  -0.02990   0.01988
 Alpha virt. eigenvalues --    0.01989   0.02537   0.06387   0.06388   0.06389
 Alpha virt. eigenvalues --    0.07000   0.07001   0.07004   0.10092   0.12313

  Beta  occ. eigenvalues -- -234.29172 -26.85521 -23.03205 -23.03205 -23.03205
  Beta  occ. eigenvalues --  -18.86236 -18.86235 -18.86234 -18.86234 -18.86233
  Beta  occ. eigenvalues --  -18.86233  -2.93032  -1.83921  -1.83921  -1.83919
  Beta  occ. eigenvalues --   -0.97451  -0.97003  -0.97003  -0.96999  -0.96886
  Beta  occ. eigenvalues --   -0.96884  -0.52528  -0.52527  -0.52524  -0.52492
  Beta  occ. eigenvalues --   -0.52492  -0.52487  -0.45219  -0.41752  -0.41752
  Beta  occ. eigenvalues --   -0.41593  -0.41591  -0.41590  -0.31862  -0.31858
  Beta  occ. eigenvalues --   -0.31856  -0.31591  -0.31590  -0.31588
  Beta virt. eigenvalues --   -0.11199  -0.11199  -0.11196  -0.07918  -0.07917
  Beta virt. eigenvalues --   -0.06893  -0.02891  -0.02889  -0.02888   0.02511
  Beta virt. eigenvalues --    0.02512   0.02933   0.06630   0.06631   0.06632

 Mulliken charges and spin densities:
               1          2
     1  Mn   1.203771   4.853068
     2  O   -0.657209   0.015285
     3  H    0.394902   0.004593
     4  O   -0.657067   0.015320
     5  H    0.394915   0.004589
     6  O   -0.657090   0.015314
     7  H    0.394906   0.004592
     8  O   -0.657138   0.015295
     9  H    0.394919   0.004592
    10  O   -0.657163   0.015301
    11  H    0.394911   0.004587
    12  O   -0.657136   0.015302
    13  H    0.394906   0.004592
    14  H    0.394904   0.004592
    15  H    0.394928   0.004594
    16  H    0.394919   0.004590
    17  H    0.395018   0.004609
    18  H    0.394905   0.004592
    19  H    0.394897   0.004595
 Sum of Mulliken charges =   2.00000   5.00000

 Dipole moment (field-independent basis, Debye):
    X=              0.0028    Y=             -0.0011    Z=              0.0006  Tot=              0.0030
 Quadrupole moment (field-independent basis, Debye-Ang):
   XX=            -16.0769   YY=            -16.0987   ZZ=            -16.1046
   XY=              0.0064   XZ=              0.0019   YZ=             -0.0046

 Normal termination of Gaussian 16 at Thu May 23 14:52:36 2024.
