 Gaussian 16, Revision C.02,

 ----------------------------------------------------------------------
 #p HSEH1PBE 6-31+G(2df,p) opt=(cartesian,calcall,maxcycles=500) freq s
 cf=(maxcycles=500,xqc,maxconventional=50)
 ----------------------------------------------------------------------

 -----
 Title
 -----
 Symbolic Z-matrix:
 Charge =  2 Multiplicity = 6

 SCF Done:  E(UHSEH1PBE) =  -1608.17273420     A.U. after   17 cycles
 SCF Done:  E(UHSEH1PBE) =  -1608.21475576     A.U. after   13 cycles
 SCF Done:  E(UHSEH1PBE) =  -1608.28305753     A.U. after   13 cycles
 SCF Done:  E(UHSEH1PBE) =  -1608.34756951     A.U. after   14 cycles
 SCF Done:  E(UHSEH1PBE) =  -1608.35588667     A.U. after   12 cycles
 SCF Done:  E(UHSEH1PBE) =  -1608.37817975     A.U. after   11 cycles
 SCF Done:  E(UHSEH1PBE) =  -1608.41019167     A.U. after   13 cycles
 SCF Done:  E(UHSEH1PBE) =  -1608.44321299     A.U. after   11 cycles
 SCF Done:  E(UHSEH1PBE) =  -1608.44149023     A.U. after   12 cycles
 SCF Done:  E(UHSEH1PBE) =  -1608.44827542     A.U. after   11 cycles
 SCF Done:  E(UHSEH1PBE) =  -1608.49102066     A.U. after    7 cycles
 SCF Done:  E(UHSEH1PBE) =  -1608.49102110     A.U. after    6 cycles
 SCF Done:  E(UHSEH1PBE) =  -1608.49101791     A.U. after    6 cycles
 SCF Done:  E(UHSEH1PBE) =  -1608.49102048     A.U. after    6 cycles
 SCF Done:  E(UHSEH1PBE) =  -1608.49102128     A.U. after    2 cycles
 SCF Done:  E(UHSEH1PBE) =  -1608.49102531     A.U. after    6 cycles
 SCF Done:  E(UHSEH1PBE) =  -1608.49101933     A.U. after    6 cycles
 SCF Done:  E(UHSEH1PBE) =  -1608.49101955     A.U. after    6 cycles
 Optimization completed.
    -- Stationary point found.
 Normal termination of Gaussian 16 at Thu May 23 15:06:44 2024.

 ----------------------------------------------------------------------
 #P Geom=AllCheck Guess=TCheck SCRF=Check GenChk UHSEH1PBE/6-31+G(2df,p
 ) Freq
 ----------------------------------------------------------------------

 Structure from the checkpoint file:  "Mn_2_HSE06.chk"
 -----
 Title
 -----
 Charge =  2 Multiplicity = 6

 SCF Done:  E(UHSEH1PBE) =  -1608.49101955     A.U. after    1 cycles

  Exact polarizability:      55.629      -0.001      55.634      -0.006       0.003      55.630
 Approx polarizability:      67.992      -0.001      67.991       0.000       0.001      67.989

                      1                      2                      3
                      A                      A                      A
 Frequencies --     68.7772                68.9391                69.5200
 Red. masses --      4.6627                 4.6794                 4.6671
 Frc consts  --      0.0130                 0.0131                 0.0133
 IR Inten    --      3.3402                 3.3839                 3.3721

                      4                      5                      6
                      A                      A                      A
 Frequencies --     88.2640                88.3332                88.7850
 Red. masses --      4.8489                 4.8434                 4.8471
 Frc consts  --      0.0223                 0.0223                 0.0225
 IR Inten    --      0.0000                 0.0000                 0.0000

                      7                      8                      9
                      A                      A                      A
 Frequencies --    104.9285               105.2920               105.6123
 Red. masses --      5.5863                 5.5792                 5.5707
 Frc consts  --      0.0362                 0.0364                 0.0366
 IR Inten    --      0.1062                 0.1090                 0.1097

                     10                     11                     12
                      A                      A                      A
 Frequencies --    209.8607               210.4512               232.7920
 Red. masses --      1.0078                 1.0078                 5.7937
 Frc consts  --      0.0262                 0.0263                 0.1850
 IR Inten    --      0.0049                 0.0078                 0.0000

                     13                     14                     15
                      A                      A                      A
 Frequencies --    232.8925               270.3510               270.8983
 Red. masses --      5.7940                 1.0303                 1.0301
 Frc consts  --      0.1852                 0.0444                 0.0445
 IR Inten    --      0.0000                 0.0000                 0.0000

                     16                     17                     18
                      A                      A                      A
 Frequencies --    271.3836               303.4022               303.6747
 Red. masses --      1.0297                 4.9671                 4.9531
 Frc consts  --      0.0447                 0.2694                 0.2691
 IR Inten    --      0.0000                 7.0318                 7.2179

                     19                     20                     21
                      A                      A                      A
 Frequencies --    303.7802               318.5432               364.3829
 Red. masses --      4.9652                 5.9863                 1.1093
 Frc consts  --      0.2700                 0.3579                 0.0868
 IR Inten    --      7.1402                 0.0000                 0.0003

                     22                     23                     24
                      A                      A                      A
 Frequencies --    364.8863               365.1880               381.3377
 Red. masses --      1.1089                 1.1083                 1.2025
 Frc consts  --      0.0870                 0.0871                 0.1030
 IR Inten    --      0.0001                 0.0001               368.9848

                     25                     26                     27
                      A                      A                      A
 Frequencies --    381.8214               381.9502               398.2974
 Red. masses --      1.2015                 1.2012                 1.0079
 Frc consts  --      0.1032                 0.1033                 0.0942
 IR Inten    --    370.5507               370.6288                 0.1509

                     28                     29                     30
                      A                      A                      A
 Frequencies --    505.3252               505.5050               505.6746
 Red. masses --      1.1568                 1.1570                 1.1567
 Frc consts  --      0.1740                 0.1742                 0.1743
 IR Inten    --      0.0005                 0.0001                 0.0002

                     31                     32                     33
                      A                      A                      A
 Frequencies --    515.2497               515.5357               515.6217
 Red. masses --      1.2117                 1.2114                 1.2116
 Frc consts  --      0.1895                 0.1897                 0.1898
 IR Inten    --    306.0224               306.2236               306.9206

                     34                     35                     36
                      A                      A                      A
 Frequencies --   1650.4933              1650.5906              1650.6218
 Red. masses --      1.0891                 1.0891                 1.0891
 Frc consts  --      1.7481                 1.7483                 1.7483
 IR Inten    --    230.0805               230.0895               230.2600

                     37                     38                     39
                      A                      A                      A
 Frequencies --   1650.9559              1651.0457              1657.7005
 Red. masses --      1.0907                 1.0907                 1.0832
 Frc consts  --      1.7515                 1.7517                 1.7537
 IR Inten    --      0.0025                 0.0104                 0.0000

                     40                     41                     42
                      A                      A                      A
 Frequencies --   3804.3717              3804.4719              3804.8401
 Red. masses --      1.0443                 1.0443                 1.0445
 Frc consts  --      8.9055                 8.9059                 8.9092
 IR Inten    --      0.0057                 0.0044               225.6558

                     43                     44                     45
                      A                      A                      A
 Frequencies --   3804.9775              3804.9896              3810.2773
 Red. masses --      1.0445                 1.0445                 1.0452
 Frc consts  --      8.9098                 8.9098                 8.9407
 IR Inten    --    225.7246               225.6232                 0.0000

                     46                     47                     48
                      A                      A                      A
 Frequencies --   3896.2707              3896.4048              3896.4286
 Red. masses --      1.0840                 1.0840                 1.0840
 Frc consts  --      9.6960                 9.6967                 9.6968
 IR Inten    --      0.0236                 0.0257                 0.0106

                     49                     50                     51
                      A                      A                      A
 Frequencies --   3896.7174              3896.8515              3896.8752
 Red. masses --      1.0841                 1.0841                 1.0841
 Frc consts  --      9.6989                 9.6996                 9.6998
 IR Inten    --    392.2432               392.2445               392.3217

 - Thermochemistry -
 -------------------
 Temperature   298.150 Kelvin.  Pressure   1.00000 Atm.
 Atom     1 has atomic number 25 and mass  54.93805

 Molecular mass:   163.00143 amu.
 Principal axes and moments of inertia in atomic units:
                           1         2         3
     Eigenvalues --  1333.661391334.076281334.47577
           X            0.99997  -0.00769  -0.00075
           Y            0.00770   0.99993   0.00851
           Z            0.00069  -0.00851   0.99996
 This molecule is an asymmetric top.
 Rotational symmetry number  1.
 Warning -- assumption of classical behavior for rotation
           may cause significant error
 Rotational temperatures (Kelvin)      0.06494     0.06492     0.06490
 Rotational constants (GHZ):           1.35322     1.35280     1.35240
 Zero-point vibrational energy     392029.1 (Joules/Mol)
                                   93.69719 (Kcal/Mol)
 Warning -- explicit consideration of  33 degrees of freedom as
           vibrations may cause significant error
 Vibrational temperatures:     98.95    99.19   100.02   126.99   127.09
          (Kelvin)            127.74   150.97   151.49   151.95   301.94
                              302.79   334.94   335.08   388.97   389.76
                              390.46   436.53   436.92   437.07   458.31
                              524.27   524.99   525.42   548.66   549.36
                              549.54   573.06   727.05   727.31   727.55
                              741.33   741.74   741.86  2374.69  2374.83
                             2374.88  2375.36  2375.49  2385.06  5473.64
                             5473.79  5474.32  5474.51  5474.53  5482.14
                             5605.86  5606.06  5606.09  5606.51  5606.70
                             5606.73

 Zero-point correction=                           0.149316 (Hartree/Particle)
 Thermal correction to Energy=                    0.167754
 Thermal correction to Enthalpy=                  0.168698
 Thermal correction to Gibbs Free Energy=         0.103628
 Sum of electronic and zero-point Energies=          -1608.341704
 Sum of electronic and thermal Energies=             -1608.323266
 Sum of electronic and thermal Enthalpies=           -1608.322322
 Sum of electronic and thermal Free Energies=        -1608.387392

                     E (Thermal)             CV                S
                      KCal/Mol        Cal/Mol-Kelvin    Cal/Mol-Kelvin
 Total                  105.267             60.884            136.951
 Electronic               0.000              0.000              3.561
 Translational            0.889              2.981             41.174
 Rotational               0.889              2.981             29.253
 Vibrational            103.490             54.923             62.964
 Vibration     1          0.598              1.969              4.188
 Vibration     2          0.598              1.969              4.183
 Vibration     3          0.598              1.969              4.167
 Vibration     4          0.601              1.957              3.698
 Vibration     5          0.601              1.957              3.697
 Vibration     6          0.602              1.957              3.687
 Vibration     7          0.605              1.945              3.361
 Vibration     8          0.605              1.945              3.354
 Vibration     9          0.605              1.945              3.348
 Vibration    10          0.642              1.826              2.045
 Vibration    11          0.643              1.825              2.040
 Vibration    12          0.654              1.791              1.857
 Vibration    13          0.654              1.791              1.857
 Vibration    14          0.674              1.728              1.594
 Vibration    15          0.675              1.727              1.590
 Vibration    16          0.675              1.726              1.587
 Vibration    17          0.695              1.667              1.398
 Vibration    18          0.695              1.667              1.397
 Vibration    19          0.695              1.667              1.396
 Vibration    20          0.705              1.638              1.318
 Vibration    21          0.738              1.546              1.103
 Vibration    22          0.738              1.545              1.101
 Vibration    23          0.738              1.544              1.100
 Vibration    24          0.751              1.510              1.034
 Vibration    25          0.751              1.509              1.032
 Vibration    26          0.751              1.509              1.031
 Vibration    27          0.765              1.474              0.969
 Vibration    28          0.861              1.238              0.645
 Vibration    29          0.861              1.238              0.645
 Vibration    30          0.861              1.237              0.644
 Vibration    31          0.870              1.216              0.621
 Vibration    32          0.871              1.216              0.620
 Vibration    33          0.871              1.215              0.620

 Normal termination of Gaussian 16 at Thu May 23 15:09:08 2024.
 Gaussian 16:  ES64L-G16RevC.02  7-Dec-2021

 ----------------------------------------------------------------------
 #p HSEH1PBE scf=(maxcycles=500,xqc,maxconventional=50) scrf=(cpcm,solv
 ent=water) geom=allcheck guess=read chkbasis
 ----------------------------------------------------------------------

 Structure from the checkpoint file:  "Mn_2_HSE06.chk_solvated"
 -----
 Title
 -----
 Charge =  2 Multiplicity = 6

                         Standard orientation:
 ---------------------------------------------------------------------
 Center     Atomic      Atomic             Coordinates (Angstroms)
 Number     Number       Type             X           Y           Z
 ---------------------------------------------------------------------
      1         25           0       -0.000027    0.000042    0.000032
      2          8           0       -1.311096    1.285066   -1.195465
      3          1           0       -2.196793    1.583492   -0.957467
      4          8           0       -0.856288   -1.771025   -0.964020
      5          1           0       -0.617698   -2.690068   -0.794906
      6          8           0        1.532653    0.109915   -1.561439
      7          1           0        2.237360    0.764710   -1.630690
      8          8           0        1.311600   -1.284715    1.195266
      9          1           0        1.115212   -1.661444    2.061099
     10          8           0        0.856186    1.770838    0.964504
     11          1           0        0.617713    2.689952    0.795616
     12          8           0       -1.533013   -0.110145    1.561102
     13          1           0       -2.237663   -0.765044    1.629953
     14          1           0       -1.633655    0.486301    2.312287
     15          1           0       -1.544053   -1.782400   -1.640044
     16          1           0       -1.114326    1.661602   -2.061295
     17          1           0        1.543910    1.781950    1.640574
     18          1           0        1.633003   -0.486755   -2.312486
     19          1           0        2.197329   -1.582809    0.956968
 ---------------------------------------------------------------------

 SCF Done:  E(UHSEH1PBE) =  -1608.76439493     A.U. after    9 cycles

 The electronic state is 6-A.
 Alpha  occ. eigenvalues -- -235.76645 -27.47650 -23.50957 -23.50957 -23.50957
 Alpha  occ. eigenvalues --  -19.27198 -19.27198 -19.27193 -19.27193 -19.27190
 Alpha  occ. eigenvalues --  -19.27190  -3.34151  -2.19358  -2.19358  -2.19357
 Alpha  occ. eigenvalues --   -1.08814  -1.08301  -1.08297  -1.08293  -1.08176
 Alpha  occ. eigenvalues --   -1.08171  -0.58942  -0.58939  -0.58934  -0.58847
 Alpha  occ. eigenvalues --   -0.58844  -0.58839  -0.52316  -0.50153  -0.50150
 Alpha  occ. eigenvalues --   -0.48033  -0.48030  -0.48024  -0.39310  -0.39306
 Alpha  occ. eigenvalues --   -0.39303  -0.37740  -0.37734  -0.37731  -0.33356
 Alpha  occ. eigenvalues --   -0.33354  -0.33352  -0.29665  -0.29663
 Alpha virt. eigenvalues --   -0.05407  -0.01147  -0.01146  -0.01143   0.03588
 Alpha virt. eigenvalues --    0.04893   0.04896   0.08835   0.08835   0.08839
 Alpha virt. eigenvalues --    0.09445   0.09446   0.09449   0.12287   0.14507

  Beta  occ. eigenvalues -- -235.76578 -27.39187 -23.43799 -23.43799 -23.43798
  Beta  occ. eigenvalues --  -19.27097 -19.27097 -19.27093 -19.27093 -19.27089
  Beta  occ. eigenvalues --  -19.27089  -3.10505  -1.93948  -1.93947  -1.93946
  Beta  occ. eigenvalues --   -1.08614  -1.08112  -1.08108  -1.08104  -1.07983
  Beta  occ. eigenvalues --   -1.07978  -0.58760  -0.58757  -0.58752  -0.58730
  Beta  occ. eigenvalues --   -0.58727  -0.58722  -0.51374  -0.47544  -0.47542
  Beta  occ. eigenvalues --   -0.47535  -0.47458  -0.47454  -0.37696  -0.37690
  Beta  occ. eigenvalues --   -0.37687  -0.37459  -0.37454  -0.37450
  Beta virt. eigenvalues --   -0.04934  -0.03485  -0.03480  -0.03477  -0.00984
  Beta virt. eigenvalues --   -0.00983  -0.00979  -0.00339  -0.00338   0.04054
  Beta virt. eigenvalues --    0.06306   0.06308   0.09262   0.09262   0.09266

 Mulliken charges and spin densities:
               1          2
     1  Mn   1.244735   4.956390
     2  O   -0.706965   0.001546
     3  H    0.416420   0.002873
     4  O   -0.706921   0.001523
     5  H    0.416370   0.002874
     6  O   -0.706899   0.001493
     7  H    0.416390   0.002871
     8  O   -0.706982   0.001543
     9  H    0.416410   0.002876
    10  O   -0.706893   0.001527
    11  H    0.416371   0.002874
    12  O   -0.706869   0.001497
    13  H    0.416383   0.002871
    14  H    0.416389   0.002875
    15  H    0.416430   0.002874
    16  H    0.416403   0.002875
    17  H    0.416425   0.002873
    18  H    0.416386   0.002874
    19  H    0.416416   0.002873
 Sum of Mulliken charges =   2.00000   5.00000

 Dipole moment (field-independent basis, Debye):
    X=              0.0003    Y=             -0.0004    Z=             -0.0003  Tot=              0.0006
 Quadrupole moment (field-independent basis, Debye-Ang):
   XX=            -15.2510   YY=            -15.2675   ZZ=            -15.2678
   XY=             -0.0060   XZ=              0.0006   YZ=              0.0086

 Normal termination of Gaussian 16 at Thu May 23 15:09:59 2024.
