 Gaussian 16, Revision C.02,

 ----------------------------------------------------------------------
 #p PBE1PBE empiricaldispersion=gd3 6-31+G(2df,p) opt=(cartesian,calcal
 l,maxcycles=500) freq scf=(maxcycles=500,xqc,maxconventional=50)
 ----------------------------------------------------------------------

 -----
 Title
 -----
 Symbolic Z-matrix:
 Charge =  3 Multiplicity = 5

 SCF Done:  E(UPBE1PBE) =  -1607.58778161     A.U. after   51 cycles
 SCF Done:  E(UPBE1PBE) =  -1607.58815952     a.u. after    7 cycles
 SCF Done:  E(UPBE1PBE) =  -1607.58940380     A.U. after   20 cycles
 SCF Done:  E(UPBE1PBE) =  -1607.61850527     A.U. after   18 cycles
 SCF Done:  E(UPBE1PBE) =  -1607.65798496     A.U. after   23 cycles
 SCF Done:  E(UPBE1PBE) =  -1607.69859403     A.U. after   19 cycles
 SCF Done:  E(UPBE1PBE) =  -1607.74550523     A.U. after   18 cycles
 SCF Done:  E(UPBE1PBE) =  -1607.77710436     A.U. after   17 cycles
 SCF Done:  E(UPBE1PBE) =  -1607.79187243     A.U. after   18 cycles
 SCF Done:  E(UPBE1PBE) =  -1607.79798191     A.U. after   18 cycles
 SCF Done:  E(UPBE1PBE) =  -1607.80868260     A.U. after   11 cycles
 SCF Done:  E(UPBE1PBE) =  -1607.80877145     A.U. after   14 cycles
 SCF Done:  E(UPBE1PBE) =  -1607.80879523     A.U. after   15 cycles
 SCF Done:  E(UPBE1PBE) =  -1607.80880330     A.U. after   14 cycles
 SCF Done:  E(UPBE1PBE) =  -1607.80880329     A.U. after   13 cycles
 SCF Done:  E(UPBE1PBE) =  -1607.80880324     A.U. after    7 cycles
 SCF Done:  E(UPBE1PBE) =  -1607.80880334     A.U. after   13 cycles
 SCF Done:  E(UPBE1PBE) =  -1607.80880377     A.U. after    8 cycles
 Optimization completed.
    -- Stationary point found.
 Normal termination of Gaussian 16 at Thu May 23 16:27:06 2024.

 ----------------------------------------------------------------------
 #P Geom=AllCheck Guess=TCheck SCRF=Check GenChk UPBE1PBE/6-31+G(2df,p)
  Freq
 ----------------------------------------------------------------------

 Structure from the checkpoint file:  "Mn_3_PBE0.chk"
 -----
 Title
 -----
 Charge =  3 Multiplicity = 5

 SCF Done:  E(UPBE1PBE) =  -1607.80880377     A.U. after    1 cycles

  Exact polarizability:      55.947      -0.000      58.113      -0.002      -0.002      58.592
 Approx polarizability:      65.986      -0.001      73.098      -0.005      -0.002      73.572

                      1                      2                      3
                      A                      A                      A
 Frequencies --    108.0551               120.1043               129.7086
 Red. masses --      5.9372                 4.4849                 4.7993
 Frc consts  --      0.0408                 0.0381                 0.0476
 IR Inten    --      4.3730                 2.6056                 9.1800

                      4                      5                      6
                      A                      A                      A
 Frequencies --    137.5788               151.8872               183.9192
 Red. masses --      4.7055                 5.7040                 5.1632
 Frc consts  --      0.0525                 0.0775                 0.1029
 IR Inten    --      0.0000                 0.0000                 0.0000

                      7                      8                      9
                      A                      A                      A
 Frequencies --    184.4908               184.8287               191.3599
 Red. masses --      5.2437                 5.8863                 8.4383
 Frc consts  --      0.1052                 0.1185                 0.1821
 IR Inten    --      0.0187                 5.3183                11.2067

                     10                     11                     12
                      A                      A                      A
 Frequencies --    206.5575               223.1701               280.1896
 Red. masses --      3.9414                 1.0078                 1.0078
 Frc consts  --      0.0991                 0.0296                 0.0466
 IR Inten    --      1.1645                 0.0000                 0.0001

                     13                     14                     15
                      A                      A                      A
 Frequencies --    302.1635               309.3873               311.1356
 Red. masses --      1.0184                 1.0943                 5.8892
 Frc consts  --      0.0548                 0.0617                 0.3359
 IR Inten    --      0.0000                 0.0000                 0.0000

                     16                     17                     18
                      A                      A                      A
 Frequencies --    314.2162               344.2410               402.9524
 Red. masses --      1.0530                 2.6319                 1.4623
 Frc consts  --      0.0613                 0.1838                 0.1399
 IR Inten    --      0.0000                59.7267               472.9019

                     19                     20                     21
                      A                      A                      A
 Frequencies --    413.0443               423.3864               427.7720
 Red. masses --      1.0283                 1.0750                 1.0807
 Frc consts  --      0.1034                 0.1135                 0.1165
 IR Inten    --      0.0003                 0.0002               427.7952

                     22                     23                     24
                      A                      A                      A
 Frequencies --    461.6510               482.4255               486.9335
 Red. masses --      6.0056                 1.0078                 2.8259
 Frc consts  --      0.7541                 0.1382                 0.3948
 IR Inten    --      0.0000                 0.0008                51.7337

                     25                     26                     27
                      A                      A                      A
 Frequencies --    497.2082               517.9127               535.5595
 Red. masses --      4.4798                 1.1276                 1.3790
 Frc consts  --      0.6525                 0.1782                 0.2330
 IR Inten    --     23.4929                 0.0001               414.0643

                     28                     29                     30
                      A                      A                      A
 Frequencies --    608.6701               624.2650               684.4852
 Red. masses --      1.1412                 1.3031                 1.1635
 Frc consts  --      0.2491                 0.2992                 0.3212
 IR Inten    --      0.0000               294.5402                 0.0000

                     31                     32                     33
                      A                      A                      A
 Frequencies --    698.8321               719.1470               734.0388
 Red. masses --      1.1569                 1.2326                 1.3139
 Frc consts  --      0.3329                 0.3756                 0.4171
 IR Inten    --      0.0000               201.6182               175.7614

                     34                     35                     36
                      A                      A                      A
 Frequencies --   1622.4453              1628.1639              1644.7608
 Red. masses --      1.1147                 1.0997                 1.0969
 Frc consts  --      1.7288                 1.7175                 1.7483
 IR Inten    --      0.0000               206.1864               190.3060

                     37                     38                     39
                      A                      A                      A
 Frequencies --   1653.9757              1671.0900              1676.2679
 Red. masses --      1.0891                 1.0863                 1.0820
 Frc consts  --      1.7554                 1.7873                 1.7913
 IR Inten    --      0.0000               226.4589                 0.0000

                     40                     41                     42
                      A                      A                      A
 Frequencies --   3660.7242              3661.2749              3677.7113
 Red. masses --      1.0428                 1.0417                 1.0432
 Frc consts  --      8.2332                 8.2274                 8.3133
 IR Inten    --    790.1696                 0.0182               787.5898

                     43                     44                     45
                      A                      A                      A
 Frequencies --   3688.9880              3727.8303              3734.1285
 Red. masses --      1.0439                 1.0448                 1.0455
 Frc consts  --      8.3701                 8.5546                 8.5888
 IR Inten    --      0.0006               521.0530                 0.0001

                     46                     47                     48
                      A                      A                      A
 Frequencies --   3749.4667              3750.9588              3763.2458
 Red. masses --      1.0873                 1.0877                 1.0870
 Frc consts  --      9.0059                 9.0163                 9.0696
 IR Inten    --      0.0057               676.7863                 0.0892

                     49                     50                     51
                      A                      A                      A
 Frequencies --   3764.4500              3802.3776              3803.0144
 Red. masses --      1.0872                 1.0837                 1.0838
 Frc consts  --      9.0778                 9.2316                 9.2353
 IR Inten    --    637.8943                 0.0043               526.9790

 - Thermochemistry -
 -------------------
 Temperature   298.150 Kelvin.  Pressure   1.00000 Atm.
 Atom     1 has atomic number 25 and mass  54.93805

 Molecular mass:   163.00143 amu.
 Principal axes and moments of inertia in atomic units:
                           1         2         3
     Eigenvalues --  1077.664331178.556141181.64903
           X            1.00000  -0.00000  -0.00004
           Y            0.00000   1.00000   0.00013
           Z            0.00004  -0.00013   1.00000
 This molecule is an asymmetric top.
 Rotational symmetry number  1.
 Warning -- assumption of classical behavior for rotation
           may cause significant error
 Rotational temperatures (Kelvin)      0.08037     0.07349     0.07330
 Rotational constants (GHZ):           1.67468     1.53132     1.52731
 Zero-point vibrational energy     401240.4 (Joules/Mol)
                                   95.89875 (Kcal/Mol)
 Warning -- explicit consideration of  28 degrees of freedom as
           vibrations may cause significant error
 Vibrational temperatures:    155.47   172.80   186.62   197.95   218.53
          (Kelvin)            264.62   265.44   265.93   275.32   297.19
                              321.09   403.13   434.75   445.14   447.65
                              452.09   495.29   579.76   594.28   609.16
                              615.47   664.21   694.10   700.59   715.37
                              745.16   770.55   875.74   898.18   984.82
                             1005.46  1034.69  1056.12  2334.34  2342.56
                             2366.44  2379.70  2404.33  2411.78  5266.97
                             5267.76  5291.41  5307.63  5363.52  5372.58
                             5394.65  5396.79  5414.47  5416.20  5470.77
                             5471.69

 Zero-point correction=                           0.152824 (Hartree/Particle)
 Thermal correction to Energy=                    0.168204
 Thermal correction to Enthalpy=                  0.169148
 Thermal correction to Gibbs Free Energy=         0.112625
 Sum of electronic and zero-point Energies=          -1607.655979
 Sum of electronic and thermal Energies=             -1607.640600
 Sum of electronic and thermal Enthalpies=           -1607.639656
 Sum of electronic and thermal Free Energies=        -1607.696179

                     E (Thermal)             CV                S
                      KCal/Mol        Cal/Mol-Kelvin    Cal/Mol-Kelvin
 Total                  105.550             55.354            118.964
 Electronic               0.000              0.000              3.198
 Translational            0.889              2.981             41.174
 Rotational               0.889              2.981             28.797
 Vibrational            103.772             49.392             45.794
 Vibration     1          0.606              1.943              3.304
 Vibration     2          0.609              1.932              3.099
 Vibration     3          0.612              1.924              2.950
 Vibration     4          0.614              1.916              2.837
 Vibration     5          0.619              1.901              2.648
 Vibration     6          0.631              1.862              2.288
 Vibration     7          0.631              1.861              2.282
 Vibration     8          0.631              1.861              2.279
 Vibration     9          0.634              1.852              2.215
 Vibration    10          0.641              1.831              2.074
 Vibration    11          0.649              1.806              1.933
 Vibration    12          0.680              1.710              1.533
 Vibration    13          0.694              1.670              1.405
 Vibration    14          0.699              1.656              1.366
 Vibration    15          0.700              1.652              1.356
 Vibration    16          0.702              1.647              1.340
 Vibration    17          0.723              1.587              1.192
 Vibration    18          0.768              1.464              0.952
 Vibration    19          0.777              1.442              0.916
 Vibration    20          0.786              1.419              0.881
 Vibration    21          0.789              1.410              0.866
 Vibration    22          0.819              1.335              0.761
 Vibration    23          0.839              1.289              0.704
 Vibration    24          0.843              1.279              0.692
 Vibration    25          0.853              1.256              0.665
 Vibration    26          0.873              1.210              0.615
 Vibration    27          0.891              1.171              0.575
 Vibration    28          0.968              1.013              0.435

 Optimization completed.
    -- Stationary point found.
 Normal termination of Gaussian 16 at Thu May 23 16:29:02 2024.
 Gaussian 16:  ES64L-G16RevC.02  7-Dec-2021

 ----------------------------------------------------------------------
 #p PBE1PBE empiricaldispersion=gd3 scf=(maxcycles=500,xqc,maxconventio
 nal=50) scrf=(cpcm,solvent=water) geom=allcheck guess=read chkbasis
 ----------------------------------------------------------------------

 Structure from the checkpoint file:  "Mn_3_PBE0.chk_solvated"
 -----
 Title
 -----
 Charge =  3 Multiplicity = 5

                         Standard orientation:
 ---------------------------------------------------------------------
 Center     Atomic      Atomic             Coordinates (Angstroms)
 Number     Number       Type             X           Y           Z
 ---------------------------------------------------------------------
      1         25           0       -0.000014   -0.000053    0.000009
      2          8           0        0.000358    0.007948   -1.955613
      3          1           0       -0.794809    0.010169   -2.519509
      4          8           0        0.000119   -1.961723   -0.008002
      5          1           0       -0.000650   -2.533129    0.780455
      6          8           0        2.143499    0.000363    0.000238
      7          1           0        2.729740    0.774327    0.003386
      8          8           0       -0.000215   -0.008180    1.955634
      9          1           0       -0.795465   -0.010656    2.519410
     10          8           0       -0.000222    1.961646    0.008068
     11          1           0        0.000635    2.533082   -0.780364
     12          8           0       -2.143507    0.000049   -0.000346
     13          1           0       -2.730068   -0.773670   -0.003767
     14          1           0       -2.729846    0.773938    0.002738
     15          1           0        0.000923   -2.526719   -0.801064
     16          1           0        0.795700    0.010166   -2.519259
     17          1           0       -0.001274    2.526606    0.801153
     18          1           0        2.730158   -0.773285   -0.002637
     19          1           0        0.795042   -0.010336    2.519403
 ---------------------------------------------------------------------

 SCF Done:  E(UPBE1PBE) =  -1608.45011375     A.U. after   13 cycles

 The electronic state is 5-A.
 Alpha  occ. eigenvalues -- -235.99347 -27.71773 -23.75959 -23.75908 -23.74861
 Alpha  occ. eigenvalues --  -19.36150 -19.36150 -19.35796 -19.35795 -19.31847
 Alpha  occ. eigenvalues --  -19.31847  -3.52892  -2.37718  -2.37602  -2.37183
 Alpha  occ. eigenvalues --   -1.17485  -1.16644  -1.16354  -1.16316  -1.12963
 Alpha  occ. eigenvalues --   -1.12892  -0.67690  -0.67623  -0.67157  -0.66864
 Alpha  occ. eigenvalues --   -0.64000  -0.63252  -0.62892  -0.61774  -0.59328
 Alpha  occ. eigenvalues --   -0.57076  -0.57060  -0.55601  -0.53949  -0.53866
 Alpha  occ. eigenvalues --   -0.52460  -0.46456  -0.45942  -0.44715  -0.43867
 Alpha  occ. eigenvalues --   -0.42500  -0.41678  -0.40930
 Alpha virt. eigenvalues --   -0.25025  -0.05255  -0.01093  -0.00984  -0.00697
 Alpha virt. eigenvalues --    0.03725   0.04789   0.05208   0.08150   0.08250
 Alpha virt. eigenvalues --    0.08296   0.08303   0.08695   0.09575   0.12789

  Beta  occ. eigenvalues -- -235.99269 -27.64325 -23.70224 -23.70158 -23.67550
  Beta  occ. eigenvalues --  -19.36118 -19.36118 -19.35770 -19.35769 -19.31618
  Beta  occ. eigenvalues --  -19.31618  -3.33252  -2.18283  -2.18141  -2.12655
  Beta  occ. eigenvalues --   -1.17323  -1.16503  -1.16235  -1.16188  -1.12502
  Beta  occ. eigenvalues --   -1.12439  -0.67202  -0.67051  -0.66982  -0.66788
  Beta  occ. eigenvalues --   -0.62712  -0.62679  -0.62534  -0.60021  -0.57259
  Beta  occ. eigenvalues --   -0.57246  -0.54381  -0.52947  -0.46749  -0.46390
  Beta  occ. eigenvalues --   -0.45808  -0.45253  -0.42258  -0.41861
  Beta virt. eigenvalues --   -0.18760  -0.17643  -0.17046  -0.15860  -0.12449
  Beta virt. eigenvalues --   -0.04959  -0.00980  -0.00873  -0.00547   0.03883
  Beta virt. eigenvalues --    0.05070   0.05642   0.08401   0.08449   0.08475

 Mulliken charges and spin densities:
               1          2
     1  Mn   1.573181   3.910384
     2  O   -0.659268   0.001396
     3  H    0.461517   0.000690
     4  O   -0.661888   0.000501
     5  H    0.459844   0.000312
     6  O   -0.679767   0.034495
     7  H    0.435814   0.003206
     8  O   -0.659270   0.001393
     9  H    0.461518   0.000689
    10  O   -0.661934   0.000497
    11  H    0.459845   0.000313
    12  O   -0.679754   0.034501
    13  H    0.435822   0.003207
    14  H    0.435812   0.003206
    15  H    0.459839   0.000312
    16  H    0.461514   0.000689
    17  H    0.459838   0.000312
    18  H    0.435822   0.003207
    19  H    0.461515   0.000690
 Sum of Mulliken charges =   3.00000   4.00000

 Dipole moment (field-independent basis, Debye):
    X=             -0.0001    Y=             -0.0001    Z=              0.0001  Tot=              0.0002
 Quadrupole moment (field-independent basis, Debye-Ang):
   XX=             -8.7281   YY=             -7.2535   ZZ=             -6.9135
   XY=             -0.0007   XZ=             -0.0057   YZ=             -0.0006

 Normal termination of Gaussian 16 at Thu May 23 16:29:28 2024.
