 Gaussian 16, Revision C.02,

 ----------------------------------------------------------------------
 #p PBE1PBE empiricaldispersion=gd3 6-31+G(2df,p) opt=(cartesian,calcal
 l,maxcycles=500) freq scf=(maxcycles=500,xqc,maxconventional=50)
 ----------------------------------------------------------------------

 -----
 Title
 -----
 Symbolic Z-matrix:
 Charge =  2 Multiplicity = 3

 SCF Done:  E(UPBE1PBE) =  -1306.64985049     A.U. after   30 cycles
 SCF Done:  E(UPBE1PBE) =  -1306.69481085     A.U. after   26 cycles
 SCF Done:  E(UPBE1PBE) =  -1306.76782971     A.U. after   24 cycles
 SCF Done:  E(UPBE1PBE) =  -1306.83978908     A.U. after   24 cycles
 SCF Done:  E(UPBE1PBE) =  -1306.85571807     A.U. after   26 cycles
 SCF Done:  E(UPBE1PBE) =  -1306.86359320     A.U. after   24 cycles
 SCF Done:  E(UPBE1PBE) =  -1306.88869198     A.U. after   22 cycles
 SCF Done:  E(UPBE1PBE) =  -1306.91559813     A.U. after   25 cycles
 SCF Done:  E(UPBE1PBE) =  -1306.93322578     A.U. after   25 cycles
 SCF Done:  E(UPBE1PBE) =  -1306.94925857     A.U. after   24 cycles
 SCF Done:  E(UPBE1PBE) =  -1306.96865487     A.U. after   24 cycles
 SCF Done:  E(UPBE1PBE) =  -1306.96873689     A.U. after   23 cycles
 SCF Done:  E(UPBE1PBE) =  -1306.96874909     A.U. after   15 cycles
 SCF Done:  E(UPBE1PBE) =  -1306.96874565     A.U. after   14 cycles
 SCF Done:  E(UPBE1PBE) =  -1306.96874690     A.U. after   14 cycles
 SCF Done:  E(UPBE1PBE) =  -1306.96874968     A.U. after    3 cycles
 SCF Done:  E(UPBE1PBE) =  -1306.96875047     A.U. after   14 cycles
 SCF Done:  E(UPBE1PBE) =  -1306.96875251     A.U. after   14 cycles
 Optimization completed.
    -- Stationary point found.
 Normal termination of Gaussian 16 at Thu May 23 17:23:44 2024.

 ----------------------------------------------------------------------
 #P Geom=AllCheck Guess=TCheck SCRF=Check GenChk UPBE1PBE/6-31+G(2df,p)
  Freq
 ----------------------------------------------------------------------

 Structure from the checkpoint file:  "Ti_2_PBE0.chk"
 -----
 Title
 -----
 Charge =  2 Multiplicity = 3

 SCF Done:  E(UPBE1PBE) =  -1306.96875251     A.U. after    1 cycles

  Exact polarizability:      57.997       0.002      57.994       0.003      -0.000      55.114
 Approx polarizability:      69.327       0.000      69.330       0.002       0.004      64.484

                      1                      2                      3
                      A                      A                      A
 Frequencies --     75.3232                76.0255                82.8618
 Red. masses --      5.3413                 5.3619                 4.6924
 Frc consts  --      0.0179                 0.0183                 0.0190
 IR Inten    --      3.0232                 3.0190                 0.0000

                      4                      5                      6
                      A                      A                      A
 Frequencies --     83.9840                93.6447               102.3429
 Red. masses --      4.6970                 5.5654                 5.7204
 Frc consts  --      0.0195                 0.0288                 0.0353
 IR Inten    --      0.0000                 0.0000                 2.1742

                      7                      8                      9
                      A                      A                      A
 Frequencies --    115.6944               115.8509               116.4952
 Red. masses --      3.0701                 3.0458                 3.8782
 Frc consts  --      0.0242                 0.0241                 0.0310
 IR Inten    --      0.5117                 0.4961                 2.5661

                     10                     11                     12
                      A                      A                      A
 Frequencies --    203.0547               203.3888               207.8769
 Red. masses --      1.3924                 1.3947                 1.1796
 Frc consts  --      0.0338                 0.0340                 0.0300
 IR Inten    --      0.0000                 0.0000                13.9304

                     13                     14                     15
                      A                      A                      A
 Frequencies --    208.0248               233.6444               293.3308
 Red. masses --      1.1786                 1.0182                 2.3670
 Frc consts  --      0.0301                 0.0327                 0.1200
 IR Inten    --     13.8315                 0.0000                 0.0000

                     16                     17                     18
                      A                      A                      A
 Frequencies --    293.4459               322.1970               337.0024
 Red. masses --      2.3576                 5.7321                 2.3692
 Frc consts  --      0.1196                 0.3506                 0.1585
 IR Inten    --      0.0000                 0.0000                54.0978

                     19                     20                     21
                      A                      A                      A
 Frequencies --    360.7119               360.7989               360.8781
 Red. masses --      1.1295                 3.4542                 1.1296
 Frc consts  --      0.0866                 0.2649                 0.0867
 IR Inten    --      0.0018                29.5163                 0.0013

                     22                     23                     24
                      A                      A                      A
 Frequencies --    361.2719               367.0974               394.3145
 Red. masses --      3.4347                 1.1826                 1.2418
 Frc consts  --      0.2641                 0.0939                 0.1138
 IR Inten    --     30.2137                14.5231               293.7469

                     25                     26                     27
                      A                      A                      A
 Frequencies --    394.3423               407.0909               413.0914
 Red. masses --      1.2457                 1.1143                 1.3666
 Frc consts  --      0.1141                 0.1088                 0.1374
 IR Inten    --    292.6569                 0.0000               567.6355

                     28                     29                     30
                      A                      A                      A
 Frequencies --    495.3608               540.3780               542.3736
 Red. masses --      1.1412                 1.2346                 1.1439
 Frc consts  --      0.1650                 0.2124                 0.1983
 IR Inten    --      0.0000               168.1249                 0.0001

                     31                     32                     33
                      A                      A                      A
 Frequencies --    542.7689               570.6002               570.9060
 Red. masses --      1.1434                 1.2774                 1.2766
 Frc consts  --      0.1985                 0.2450                 0.2451
 IR Inten    --      0.0001               247.7596               247.8990

                     34                     35                     36
                      A                      A                      A
 Frequencies --   1665.7660              1665.7747              1666.2014
 Red. masses --      1.0875                 1.0875                 1.0880
 Frc consts  --      1.7778                 1.7778                 1.7796
 IR Inten    --    221.8341               221.8859                 0.0001

                     37                     38                     39
                      A                      A                      A
 Frequencies --   1666.2153              1668.5471              1675.3490
 Red. masses --      1.0880                 1.0871                 1.0825
 Frc consts  --      1.7796                 1.7832                 1.7901
 IR Inten    --      0.0001               248.1891                 0.0000

                     40                     41                     42
                      A                      A                      A
 Frequencies --   3812.9705              3813.0356              3814.3852
 Red. masses --      1.0445                 1.0445                 1.0448
 Frc consts  --      8.9468                 8.9471                 8.9560
 IR Inten    --      0.0005                 0.0006               239.5975

                     43                     44                     45
                      A                      A                      A
 Frequencies --   3814.4504              3815.8158              3820.7946
 Red. masses --      1.0448                 1.0447                 1.0454
 Frc consts  --      8.9563                 8.9622                 8.9921
 IR Inten    --    239.7878               231.3024                 0.0000

                     46                     47                     48
                      A                      A                      A
 Frequencies --   3898.4552              3898.7191              3899.3052
 Red. masses --      1.0835                 1.0834                 1.0836
 Frc consts  --      9.7021                 9.7029                 9.7074
 IR Inten    --      0.0015               228.9912                 0.0026

                     49                     50                     51
                      A                      A                      A
 Frequencies --   3899.3807              3900.2032              3900.2763
 Red. masses --      1.0836                 1.0835                 1.0835
 Frc consts  --      9.7078                 9.7109                 9.7113
 IR Inten    --      0.0064               467.0788               466.8857

 - Thermochemistry -
 -------------------
 Temperature   298.150 Kelvin.  Pressure   1.00000 Atm.
 Atom     1 has atomic number 22 and mass  47.94795

 Molecular mass:   156.01133 amu.
 Principal axes and moments of inertia in atomic units:
                           1         2         3
     Eigenvalues --  1319.303631319.494311391.26312
           X            0.99991   0.01307  -0.00003
           Y           -0.01307   0.99991   0.00003
           Z            0.00003  -0.00003   1.00000
 This molecule is an asymmetric top.
 Rotational symmetry number  1.
 Warning -- assumption of classical behavior for rotation
           may cause significant error
 Rotational temperatures (Kelvin)      0.06565     0.06564     0.06226
 Rotational constants (GHZ):           1.36795     1.36775     1.29720
 Zero-point vibrational energy     395615.9 (Joules/Mol)
                                   94.55448 (Kcal/Mol)
 Warning -- explicit consideration of  33 degrees of freedom as
           vibrations may cause significant error
 Vibrational temperatures:    108.37   109.38   119.22   120.83   134.73
          (Kelvin)            147.25   166.46   166.68   167.61   292.15
                              292.63   299.09   299.30   336.16   422.04
                              422.20   463.57   484.87   518.98   519.11
                              519.22   519.79   528.17   567.33   567.37
                              585.71   594.35   712.71   777.48   780.35
                              780.92   820.97   821.41  2396.67  2396.68
                             2397.29  2397.31  2400.67  2410.45  5486.01
                             5486.11  5488.05  5488.14  5490.11  5497.27
                             5609.01  5609.39  5610.23  5610.34  5611.52
                             5611.63

 Zero-point correction=                           0.150682 (Hartree/Particle)
 Thermal correction to Energy=                    0.168697
 Thermal correction to Enthalpy=                  0.169641
 Thermal correction to Gibbs Free Energy=         0.106449
 Sum of electronic and zero-point Energies=          -1306.818070
 Sum of electronic and thermal Energies=             -1306.800055
 Sum of electronic and thermal Enthalpies=           -1306.799111
 Sum of electronic and thermal Free Energies=        -1306.862304

                     E (Thermal)             CV                S
                      KCal/Mol        Cal/Mol-Kelvin    Cal/Mol-Kelvin
 Total                  105.859             60.026            133.000
 Electronic               0.000              0.000              2.183
 Translational            0.889              2.981             41.044
 Rotational               0.889              2.981             29.272
 Vibrational            104.082             54.064             60.500
 Vibration     1          0.599              1.965              4.009
 Vibration     2          0.599              1.965              3.991
 Vibration     3          0.600              1.961              3.822
 Vibration     4          0.601              1.960              3.796
 Vibration     5          0.603              1.954              3.582
 Vibration     6          0.604              1.947              3.409
 Vibration     7          0.608              1.936              3.171
 Vibration     8          0.608              1.936              3.168
 Vibration     9          0.608              1.936              3.158
 Vibration    10          0.639              1.836              2.105
 Vibration    11          0.639              1.835              2.102
 Vibration    12          0.641              1.829              2.062
 Vibration    13          0.641              1.828              2.061
 Vibration    14          0.654              1.789              1.851
 Vibration    15          0.688              1.686              1.455
 Vibration    16          0.688              1.686              1.454
 Vibration    17          0.707              1.631              1.299
 Vibration    18          0.718              1.602              1.226
 Vibration    19          0.735              1.553              1.119
 Vibration    20          0.735              1.553              1.119
 Vibration    21          0.735              1.553              1.118
 Vibration    22          0.735              1.552              1.117
 Vibration    23          0.740              1.540              1.092
 Vibration    24          0.761              1.482              0.984
 Vibration    25          0.761              1.482              0.984
 Vibration    26          0.772              1.455              0.937
 Vibration    27          0.777              1.442              0.916
 Vibration    28          0.851              1.260              0.670
 Vibration    29          0.895              1.161              0.564
 Vibration    30          0.897              1.156              0.560
 Vibration    31          0.898              1.156              0.559
 Vibration    32          0.927              1.095              0.503
 Vibration    33          0.927              1.094              0.502

 Optimization completed.
    -- Stationary point found.
 Normal termination of Gaussian 16 at Thu May 23 17:25:34 2024.
 Gaussian 16:  ES64L-G16RevC.02  7-Dec-2021

 ----------------------------------------------------------------------
 #p PBE1PBE empiricaldispersion=gd3 scf=(maxcycles=500,xqc,maxconventio
 nal=50) scrf=(cpcm,solvent=water) geom=allcheck guess=read chkbasis
 ----------------------------------------------------------------------

 Structure from the checkpoint file:  "Ti_2_PBE0.chk_solvated"
 -----
 Title
 -----
 Charge =  2 Multiplicity = 3

                         Standard orientation:
 ---------------------------------------------------------------------
 Center     Atomic      Atomic             Coordinates (Angstroms)
 Number     Number       Type             X           Y           Z
 ---------------------------------------------------------------------
      1         22           0       -0.000000   -0.000001   -0.000000
      2          8           0        0.416876    1.779608   -1.221936
      3          1           0        1.103729    1.878678   -1.891323
      4          8           0       -1.332981    1.249091    1.223454
      5          1           0       -2.295818    1.200665    1.247983
      6          8           0       -1.748364   -0.527975   -1.224160
      7          1           0       -2.187993   -1.385918   -1.249936
      8          8           0       -0.416878   -1.779608    1.221937
      9          1           0        0.106017   -2.589537    1.246463
     10          8           0        1.332984   -1.249091   -1.223454
     11          1           0        2.295820   -1.200655   -1.247987
     12          8           0        1.748363    0.527978    1.224159
     13          1           0        2.187990    1.385922    1.249930
     14          1           0        2.177085   -0.017774    1.893498
     15          1           0       -1.075635    1.892691    1.893686
     16          1           0       -0.106014    2.589539   -1.246452
     17          1           0        1.075641   -1.892706   -1.893673
     18          1           0       -2.177080    0.017779   -1.893501
     19          1           0       -1.103738   -1.878679    1.891316
 ---------------------------------------------------------------------

 SCF Done:  E(UPBE1PBE) =  -1307.24305847     A.U. after   16 cycles

 The electronic state is 3-A.
 Alpha  occ. eigenvalues -- -179.04667 -19.93717 -19.28432 -19.28432 -19.28431
 Alpha  occ. eigenvalues --  -19.28431 -19.28429 -19.28429 -16.62247 -16.61705
 Alpha  occ. eigenvalues --  -16.61704  -2.38891  -1.49325  -1.49288  -1.49287
 Alpha  occ. eigenvalues --   -1.10272  -1.09744  -1.09743  -1.09721  -1.09719
 Alpha  occ. eigenvalues --   -1.09652  -0.60522  -0.60519  -0.60247  -0.60245
 Alpha  occ. eigenvalues --   -0.60144  -0.59865  -0.52231  -0.49552  -0.49550
 Alpha  occ. eigenvalues --   -0.48689  -0.48687  -0.48366  -0.40272  -0.39358
 Alpha  occ. eigenvalues --   -0.39199  -0.39197  -0.39045  -0.39043  -0.17983
 Alpha  occ. eigenvalues --   -0.17980
 Alpha virt. eigenvalues --   -0.03674  -0.01947  -0.00247  -0.00246  -0.00050
 Alpha virt. eigenvalues --    0.02270   0.02272   0.03686   0.08393   0.08395
 Alpha virt. eigenvalues --    0.09557   0.09558   0.09884   0.09885   0.09998

  Beta  occ. eigenvalues -- -179.04666 -19.91665 -19.28437 -19.28437 -19.28436
  Beta  occ. eigenvalues --  -19.28436 -19.28434 -19.28434 -16.60860 -16.59757
  Beta  occ. eigenvalues --  -16.59754  -2.31652  -1.43265  -1.40454  -1.40449
  Beta  occ. eigenvalues --   -1.10226  -1.09715  -1.09713  -1.09644  -1.09642
  Beta  occ. eigenvalues --   -1.09599  -0.60412  -0.60410  -0.60189  -0.60187
  Beta  occ. eigenvalues --   -0.60096  -0.59820  -0.51909  -0.49432  -0.49431
  Beta  occ. eigenvalues --   -0.48598  -0.48596  -0.48334  -0.40112  -0.39255
  Beta  occ. eigenvalues --   -0.38930  -0.38928  -0.38896  -0.38894
  Beta virt. eigenvalues --   -0.03507  -0.00165  -0.00164   0.00010   0.01175
  Beta virt. eigenvalues --    0.03431   0.03432   0.03800   0.03805   0.03809
  Beta virt. eigenvalues --    0.09794   0.09795   0.09947   0.09948   0.10137

 Mulliken charges and spin densities:
               1          2
     1  Ti   1.355818   2.073505
     2  O   -0.729961  -0.015760
     3  H    0.420813   0.001064
     4  O   -0.730092  -0.015788
     5  H    0.416505   0.002469
     6  O   -0.729886  -0.015797
     7  H    0.416500   0.002463
     8  O   -0.729960  -0.015760
     9  H    0.416524   0.002463
    10  O   -0.730090  -0.015788
    11  H    0.416505   0.002469
    12  O   -0.729885  -0.015797
    13  H    0.416500   0.002463
    14  H    0.420824   0.001068
    15  H    0.420862   0.001066
    16  H    0.416524   0.002463
    17  H    0.420862   0.001066
    18  H    0.420824   0.001068
    19  H    0.420813   0.001064
 Sum of Mulliken charges =   2.00000   2.00000

 Dipole moment (field-independent basis, Debye):
    X=              0.0000    Y=             -0.0000    Z=              0.0000  Tot=              0.0000
 Quadrupole moment (field-independent basis, Debye-Ang):
   XX=            -13.9212   YY=            -13.9271   ZZ=            -18.6676
   XY=             -0.0016   XZ=             -0.0014   YZ=              0.0014

 Normal termination of Gaussian 16 at Thu May 23 17:26:04 2024.
