 Gaussian 16, Revision C.02,

 ----------------------------------------------------------------------
 #p B3LYP empiricaldispersion=gd3 6-31+G(2df,p) opt=(cartesian,calcall,
 maxcycles=500) freq scf=(maxcycles=500,xqc,maxconventional=50)
 ----------------------------------------------------------------------

 -----
 Title
 -----
 Symbolic Z-matrix:
 Charge =  2 Multiplicity = 3

 SCF Done:  E(UB3LYP) =  -1307.35069569     A.U. after   29 cycles
 SCF Done:  E(UB3LYP) =  -1307.39489017     A.U. after   25 cycles
 SCF Done:  E(UB3LYP) =  -1307.46793990     A.U. after   24 cycles
 SCF Done:  E(UB3LYP) =  -1307.53798962     A.U. after   23 cycles
 SCF Done:  E(UB3LYP) =  -1307.54682749     A.U. after   24 cycles
 SCF Done:  E(UB3LYP) =  -1307.57936630     A.U. after   22 cycles
 SCF Done:  E(UB3LYP) =  -1307.61607011     A.U. after   24 cycles
 SCF Done:  E(UB3LYP) =  -1307.62674725     A.U. after   25 cycles
 SCF Done:  E(UB3LYP) =  -1307.63203227     A.U. after   25 cycles
 SCF Done:  E(UB3LYP) =  -1307.65415338     A.U. after   23 cycles
 SCF Done:  E(UB3LYP) =  -1307.68645231     A.U. after   22 cycles
 SCF Done:  E(UB3LYP) =  -1307.68650665     A.U. after   17 cycles
 SCF Done:  E(UB3LYP) =  -1307.68652068     A.U. after   14 cycles
 SCF Done:  E(UB3LYP) =  -1307.68652228     A.U. after   14 cycles
 SCF Done:  E(UB3LYP) =  -1307.68651975     A.U. after   14 cycles
 SCF Done:  E(UB3LYP) =  -1307.68652284     A.U. after   13 cycles
 SCF Done:  E(UB3LYP) =  -1307.68652714     A.U. after   13 cycles
 SCF Done:  E(UB3LYP) =  -1307.68652735     A.U. after   14 cycles
 Optimization completed.
    -- Stationary point found.
 Normal termination of Gaussian 16 at Thu May 23 17:04:06 2024.

 ----------------------------------------------------------------------
 #P Geom=AllCheck Guess=TCheck SCRF=Check GenChk UB3LYP/6-31+G(2df,p) F
 req
 ----------------------------------------------------------------------

 Structure from the checkpoint file:  "Ti_2_B3LYP.chk"
 -----
 Title
 -----
 Charge =  2 Multiplicity = 3

 SCF Done:  E(UB3LYP) =  -1307.68652735     A.U. after    1 cycles

  Exact polarizability:      59.283       0.001      59.282      -0.002      -0.007      56.400
 Approx polarizability:      73.435      -0.000      73.434      -0.001      -0.007      68.362

                      1                      2                      3
                      A                      A                      A
 Frequencies --     73.9730                74.3470                81.8325
 Red. masses --      5.2406                 5.2785                 4.6547
 Frc consts  --      0.0169                 0.0172                 0.0184
 IR Inten    --      2.5599                 2.5741                 0.0000

                      4                      5                      6
                      A                      A                      A
 Frequencies --     82.2873                93.5594               100.1782
 Red. masses --      4.6569                 5.4211                 5.5426
 Frc consts  --      0.0186                 0.0280                 0.0328
 IR Inten    --      0.0000                 0.0000                 1.9050

                      7                      8                      9
                      A                      A                      A
 Frequencies --    114.0674               114.1246               114.8779
 Red. masses --      3.1791                 3.2325                 3.9252
 Frc consts  --      0.0244                 0.0248                 0.0305
 IR Inten    --      0.3041                 0.4347                 2.3773

                     10                     11                     12
                      A                      A                      A
 Frequencies --    205.8904               206.4418               206.7194
 Red. masses --      1.3963                 1.1576                 1.4013
 Frc consts  --      0.0349                 0.0291                 0.0353
 IR Inten    --      0.0003                11.8772                 0.0134

                     13                     14                     15
                      A                      A                      A
 Frequencies --    207.1232               233.6984               291.5252
 Red. masses --      1.1566                 1.0193                 2.3502
 Frc consts  --      0.0292                 0.0328                 0.1177
 IR Inten    --     11.6930                 0.0000                 0.0000

                     16                     17                     18
                      A                      A                      A
 Frequencies --    291.6046               319.6458               336.9884
 Red. masses --      2.3433                 5.7703                 2.4066
 Frc consts  --      0.1174                 0.3474                 0.1610
 IR Inten    --      0.0000                 0.0000                34.9049

                     19                     20                     21
                      A                      A                      A
 Frequencies --    360.6344               360.7275               363.6940
 Red. masses --      4.1312                 4.1467                 1.2258
 Frc consts  --      0.3166                 0.3179                 0.0955
 IR Inten    --     12.0091                11.6648                 9.5566

                     22                     23                     24
                      A                      A                      A
 Frequencies --    370.7946               371.0007               401.4331
 Red. masses --      1.1308                 1.1311                 1.1900
 Frc consts  --      0.0916                 0.0917                 0.1130
 IR Inten    --      0.0000                 0.0000               310.8757

                     25                     26                     27
                      A                      A                      A
 Frequencies --    401.7352               415.6322               421.1939
 Red. masses --      1.1888                 1.1176                 1.3113
 Frc consts  --      0.1130                 0.1138                 0.1371
 IR Inten    --    310.9912                 0.0000               592.6728

                     28                     29                     30
                      A                      A                      A
 Frequencies --    503.4368               546.8408               548.1048
 Red. masses --      1.1424                 1.2295                 1.1455
 Frc consts  --      0.1706                 0.2166                 0.2028
 IR Inten    --      0.0000               170.8464                 0.0023

                     31                     32                     33
                      A                      A                      A
 Frequencies --    548.3761               574.9895               575.1887
 Red. masses --      1.1455                 1.2681                 1.2676
 Frc consts  --      0.2030                 0.2470                 0.2471
 IR Inten    --      0.0000               249.2135               248.6487

                     34                     35                     36
                      A                      A                      A
 Frequencies --   1660.8185              1660.8777              1661.2950
 Red. masses --      1.0865                 1.0865                 1.0870
 Frc consts  --      1.7657                 1.7658                 1.7675
 IR Inten    --    218.1984               218.2464                 0.0003

                     37                     38                     39
                      A                      A                      A
 Frequencies --   1661.3562              1663.4102              1670.1782
 Red. masses --      1.0869                 1.0862                 1.0817
 Frc consts  --      1.7676                 1.7707                 1.7779
 IR Inten    --      0.0003               241.0409                 0.0000

                     40                     41                     42
                      A                      A                      A
 Frequencies --   3755.3087              3755.3224              3756.7156
 Red. masses --      1.0442                 1.0442                 1.0445
 Frc consts  --      8.6762                 8.6763                 8.6851
 IR Inten    --      0.0034                 0.0006               228.9899

                     43                     44                     45
                      A                      A                      A
 Frequencies --   3756.7240              3758.0704              3762.8132
 Red. masses --      1.0445                 1.0445                 1.0452
 Frc consts  --      8.6852                 8.6910                 8.7193
 IR Inten    --    228.5525               214.0841                 0.0002

                     46                     47                     48
                      A                      A                      A
 Frequencies --   3836.1625              3836.3522              3836.7888
 Red. masses --      1.0835                 1.0834                 1.0836
 Frc consts  --      9.3941                 9.3944                 9.3984
 IR Inten    --      0.0061               226.7512                 0.0077

                     49                     50                     51
                      A                      A                      A
 Frequencies --   3836.7973              3837.8121              3837.8236
 Red. masses --      1.0836                 1.0835                 1.0835
 Frc consts  --      9.3984                 9.4022                 9.4023
 IR Inten    --      0.0157               441.9589               441.6049

 - Thermochemistry -
 -------------------
 Temperature   298.150 Kelvin.  Pressure   1.00000 Atm.
 Atom     1 has atomic number 22 and mass  47.94795

 Molecular mass:   156.01133 amu.
 Principal axes and moments of inertia in atomic units:
                           1         2         3
     Eigenvalues --  1336.970581337.083311406.22259
           X            0.99981  -0.01933  -0.00002
           Y            0.01933   0.99981  -0.00009
           Z            0.00002   0.00009   1.00000
 This molecule is an asymmetric top.
 Rotational symmetry number  1.
 Warning -- assumption of classical behavior for rotation
           may cause significant error
 Rotational temperatures (Kelvin)      0.06478     0.06478     0.06159
 Rotational constants (GHZ):           1.34987     1.34976     1.28340
 Zero-point vibrational energy     391521.6 (Joules/Mol)
                                   93.57590 (Kcal/Mol)
 Warning -- explicit consideration of  33 degrees of freedom as
           vibrations may cause significant error
 Vibrational temperatures:    106.43   106.97   117.74   118.39   134.61
          (Kelvin)            144.13   164.12   164.20   165.28   296.23
                              297.02   297.42   298.00   336.24   419.44
                              419.55   459.90   484.85   518.87   519.01
                              523.27   533.49   533.79   577.57   578.01
                              598.00   606.00   724.33   786.78   788.60
                              788.99   827.28   827.57  2389.55  2389.63
                             2390.23  2390.32  2393.28  2403.01  5403.05
                             5403.07  5405.08  5405.09  5407.03  5413.85
                             5519.38  5519.66  5520.28  5520.30  5521.76
                             5521.77

 Zero-point correction=                           0.149123 (Hartree/Particle)
 Thermal correction to Energy=                    0.167095
 Thermal correction to Enthalpy=                  0.168039
 Thermal correction to Gibbs Free Energy=         0.104821
 Sum of electronic and zero-point Energies=          -1307.537405
 Sum of electronic and thermal Energies=             -1307.519432
 Sum of electronic and thermal Enthalpies=           -1307.518488
 Sum of electronic and thermal Free Energies=        -1307.581706

                     E (Thermal)             CV                S
                      KCal/Mol        Cal/Mol-Kelvin    Cal/Mol-Kelvin
 Total                  104.854             59.869            133.054
 Electronic               0.000              0.000              2.183
 Translational            0.889              2.981             41.044
 Rotational               0.889              2.981             29.309
 Vibrational            103.076             53.908             60.517
 Vibration     1          0.599              1.966              4.045
 Vibration     2          0.599              1.966              4.035
 Vibration     3          0.600              1.962              3.846
 Vibration     4          0.600              1.961              3.836
 Vibration     5          0.603              1.954              3.584
 Vibration     6          0.604              1.949              3.451
 Vibration     7          0.607              1.938              3.198
 Vibration     8          0.607              1.938              3.198
 Vibration     9          0.608              1.937              3.185
 Vibration    10          0.640              1.831              2.080
 Vibration    11          0.641              1.831              2.075
 Vibration    12          0.641              1.830              2.072
 Vibration    13          0.641              1.830              2.069
 Vibration    14          0.654              1.789              1.850
 Vibration    15          0.687              1.690              1.465
 Vibration    16          0.687              1.689              1.465
 Vibration    17          0.706              1.636              1.312
 Vibration    18          0.718              1.602              1.226
 Vibration    19          0.735              1.553              1.119
 Vibration    20          0.735              1.553              1.119
 Vibration    21          0.737              1.547              1.106
 Vibration    22          0.743              1.532              1.077
 Vibration    23          0.743              1.532              1.076
 Vibration    24          0.767              1.467              0.957
 Vibration    25          0.767              1.466              0.956
 Vibration    26          0.779              1.436              0.907
 Vibration    27          0.784              1.424              0.888
 Vibration    28          0.859              1.242              0.650
 Vibration    29          0.902              1.147              0.551
 Vibration    30          0.903              1.144              0.548
 Vibration    31          0.904              1.143              0.548
 Vibration    32          0.931              1.085              0.495
 Vibration    33          0.932              1.085              0.494

 Optimization completed.
    -- Stationary point found.
 Normal termination of Gaussian 16 at Thu May 23 17:05:55 2024.
 Gaussian 16:  ES64L-G16RevC.02  7-Dec-2021

 ----------------------------------------------------------------------
 #p B3LYP empiricaldispersion=gd3 scf=(maxcycles=500,xqc,maxconventiona
 l=50) scrf=(cpcm,solvent=water) geom=allcheck guess=read chkbasis
 ----------------------------------------------------------------------

 Structure from the checkpoint file:  "Ti_2_B3LYP.chk_solvated"
 -----
 Title
 -----
 Charge =  2 Multiplicity = 3

                         Standard orientation:
 ---------------------------------------------------------------------
 Center     Atomic      Atomic             Coordinates (Angstroms)
 Number     Number       Type             X           Y           Z
 ---------------------------------------------------------------------
      1         22           0       -0.000007    0.000010   -0.000001
      2          8           0        0.118757   -1.834398   -1.231542
      3          1           0       -0.512110   -2.127704   -1.903992
      4          8           0        1.646928   -0.812013    1.234366
      5          1           0        2.560077   -0.491991    1.253610
      6          8           0        1.527985    1.017807   -1.234743
      7          1           0        1.707146    1.968631   -1.256006
      8          8           0       -0.118745    1.834371    1.231603
      9          1           0       -0.852509    2.465120    1.250814
     10          8           0       -1.646915    0.812029   -1.234398
     11          1           0       -2.560053    0.491987   -1.253698
     12          8           0       -1.527998   -1.017817    1.234715
     13          1           0       -1.707144   -1.968644    1.255943
     14          1           0       -2.096447   -0.616938    1.907302
     15          1           0        1.584836   -1.503580    1.908231
     16          1           0        0.852510   -2.465164   -1.250656
     17          1           0       -1.584823    1.503658   -1.908199
     18          1           0        2.096398    0.616901   -1.907344
     19          1           0        0.512177    2.127665    1.904007
 ---------------------------------------------------------------------

 SCF Done:  E(UB3LYP) =  -1307.96056723     A.U. after   16 cycles

 The electronic state is 3-A.
 Alpha  occ. eigenvalues -- -178.81291 -19.84589 -19.21217 -19.21217 -19.21215
 Alpha  occ. eigenvalues --  -19.21214 -19.21214 -19.21214 -16.56297 -16.55749
 Alpha  occ. eigenvalues --  -16.55749  -2.35360  -1.47158  -1.46973  -1.46972
 Alpha  occ. eigenvalues --   -1.07581  -1.07084  -1.07081  -1.07072  -1.07069
 Alpha  occ. eigenvalues --   -1.07009  -0.59099  -0.59096  -0.58850  -0.58848
 Alpha  occ. eigenvalues --   -0.58753  -0.58496  -0.50703  -0.48162  -0.48160
 Alpha  occ. eigenvalues --   -0.47340  -0.47337  -0.47061  -0.38978  -0.38115
 Alpha  occ. eigenvalues --   -0.37952  -0.37950  -0.37824  -0.37823  -0.17051
 Alpha  occ. eigenvalues --   -0.17049
 Alpha virt. eigenvalues --   -0.04851  -0.03511  -0.01413  -0.01410  -0.01208
 Alpha virt. eigenvalues --    0.00544   0.00546   0.02989   0.06548   0.06550
 Alpha virt. eigenvalues --    0.08388   0.08390   0.08492   0.08494   0.08834

  Beta  occ. eigenvalues -- -178.81278 -19.82619 -19.21211 -19.21211 -19.21208
  Beta  occ. eigenvalues --  -19.21208 -19.21208 -19.21208 -16.54955 -16.53908
  Beta  occ. eigenvalues --  -16.53908  -2.28442  -1.41401  -1.38824  -1.38823
  Beta  occ. eigenvalues --   -1.07532  -1.07044  -1.07042  -1.06992  -1.06989
  Beta  occ. eigenvalues --   -1.06948  -0.59008  -0.59005  -0.58798  -0.58796
  Beta  occ. eigenvalues --   -0.58708  -0.58452  -0.50485  -0.48067  -0.48064
  Beta  occ. eigenvalues --   -0.47268  -0.47265  -0.47032  -0.38838  -0.38015
  Beta  occ. eigenvalues --   -0.37714  -0.37712  -0.37687  -0.37685
  Beta virt. eigenvalues --   -0.04750  -0.01382  -0.01380  -0.01179  -0.00760
  Beta virt. eigenvalues --    0.01327   0.01331   0.01801   0.01803   0.03059
  Beta virt. eigenvalues --    0.08166   0.08167   0.08536   0.08537   0.08549

 Mulliken charges and spin densities:
               1          2
     1  Ti   1.401903   2.031165
     2  O   -0.715341  -0.008953
     3  H    0.409438   0.001152
     4  O   -0.715477  -0.008949
     5  H    0.405679   0.002610
     6  O   -0.715504  -0.008961
     7  H    0.405682   0.002613
     8  O   -0.715333  -0.008953
     9  H    0.405713   0.002607
    10  O   -0.715462  -0.008950
    11  H    0.405677   0.002610
    12  O   -0.715495  -0.008962
    13  H    0.405680   0.002613
    14  H    0.409427   0.001149
    15  H    0.409418   0.001149
    16  H    0.405714   0.002607
    17  H    0.409416   0.001150
    18  H    0.409428   0.001149
    19  H    0.409436   0.001153
 Sum of Mulliken charges =   2.00000   2.00000

 Dipole moment (field-independent basis, Debye):
    X=              0.0000    Y=              0.0000    Z=              0.0000  Tot=              0.0000
 Quadrupole moment (field-independent basis, Debye-Ang):
   XX=            -14.1878   YY=            -14.1771   ZZ=            -18.9605
   XY=             -0.0006   XZ=              0.0016   YZ=             -0.0045

 Normal termination of Gaussian 16 at Thu May 23 17:06:26 2024.
