 Gaussian 16, Revision C.02,

 ----------------------------------------------------------------------
 #p HSEH1PBE 6-31+G(2df,p) opt=(cartesian,calcall,maxcycles=500) freq s
 cf=(maxcycles=500,xqc,maxconventional=50)
 ----------------------------------------------------------------------

 -----
 Title
 -----
 Symbolic Z-matrix:
 Charge =  3 Multiplicity = 2

 SCF Done:  E(UHSEH1PBE) =  -1306.19683236     A.U. after   21 cycles
 SCF Done:  E(UHSEH1PBE) =  -1306.23321810     A.U. after   19 cycles
 SCF Done:  E(UHSEH1PBE) =  -1306.29328003     A.U. after   19 cycles
 SCF Done:  E(UHSEH1PBE) =  -1306.34660158     A.U. after   20 cycles
 SCF Done:  E(UHSEH1PBE) =  -1306.37732495     A.U. after   20 cycles
 SCF Done:  E(UHSEH1PBE) =  -1306.40691572     A.U. after   22 cycles
 SCF Done:  E(UHSEH1PBE) =  -1306.43390726     A.U. after   21 cycles
 SCF Done:  E(UHSEH1PBE) =  -1306.45693460     A.U. after   21 cycles
 SCF Done:  E(UHSEH1PBE) =  -1306.46941442     A.U. after   22 cycles
 SCF Done:  E(UHSEH1PBE) =  -1306.47759576     A.U. after   21 cycles
 SCF Done:  E(UHSEH1PBE) =  -1306.48724271     A.U. after   21 cycles
 SCF Done:  E(UHSEH1PBE) =  -1306.48845764     A.U. after   21 cycles
 SCF Done:  E(UHSEH1PBE) =  -1306.48866853     A.U. after   16 cycles
 SCF Done:  E(UHSEH1PBE) =  -1306.48869650     A.U. after   15 cycles
 SCF Done:  E(UHSEH1PBE) =  -1306.48870047     A.U. after   14 cycles
 SCF Done:  E(UHSEH1PBE) =  -1306.48869822     A.U. after   14 cycles
 SCF Done:  E(UHSEH1PBE) =  -1306.48869508     A.U. after   14 cycles
 SCF Done:  E(UHSEH1PBE) =  -1306.48869806     A.U. after   12 cycles
 Optimization completed.
    -- Stationary point found.
 Normal termination of Gaussian 16 at Thu May 23 18:08:11 2024.

 ----------------------------------------------------------------------
 #P Geom=AllCheck Guess=TCheck SCRF=Check GenChk UHSEH1PBE/6-31+G(2df,p
 ) Freq
 ----------------------------------------------------------------------

 Structure from the checkpoint file:  "Ti_3_HSE06.chk"
 -----
 Title
 -----
 Charge =  3 Multiplicity = 2

 SCF Done:  E(UHSEH1PBE) =  -1306.48869806     A.U. after    1 cycles

  Exact polarizability:      57.612      -0.001      57.607      -0.000      -0.001      58.577
 Approx polarizability:      73.916      -0.002      73.909       0.001      -0.006      77.444

                      1                      2                      3
                      A                      A                      A
 Frequencies --     99.8826               111.3219               112.1075
 Red. masses --      4.8650                 4.4568                 4.4515
 Frc consts  --      0.0286                 0.0325                 0.0330
 IR Inten    --      0.6438                 0.8325                 0.8059

                      4                      5                      6
                      A                      A                      A
 Frequencies --    157.1658               157.3499               160.7011
 Red. masses --      4.9642                 4.9711                 3.3697
 Frc consts  --      0.0722                 0.0725                 0.0513
 IR Inten    --      0.0000                 0.0000                 0.0000

                      7                      8                      9
                      A                      A                      A
 Frequencies --    171.8396               171.9831               174.4881
 Red. masses --      3.8194                 3.8125                 4.4615
 Frc consts  --      0.0664                 0.0664                 0.0800
 IR Inten    --      0.5350                 0.5393                 0.4482

                     10                     11                     12
                      A                      A                      A
 Frequencies --    253.1509               253.8821               255.0610
 Red. masses --      1.1321                 1.1389                 1.0939
 Frc consts  --      0.0427                 0.0433                 0.0419
 IR Inten    --      0.0065                 0.0019                 0.0169

                     13                     14                     15
                      A                      A                      A
 Frequencies --    257.4771               258.1710               350.6835
 Red. masses --      1.0896                 1.0885                 3.6595
 Frc consts  --      0.0426                 0.0427                 0.2652
 IR Inten    --      2.3394                 2.4050                 0.0000

                     16                     17                     18
                      A                      A                      A
 Frequencies --    350.9145               401.2341               425.9702
 Red. masses --      3.6731                 1.3388                 5.9858
 Frc consts  --      0.2665                 0.1270                 0.6399
 IR Inten    --      0.0000                28.6788                 0.0000

                     19                     20                     21
                      A                      A                      A
 Frequencies --    435.6166               441.7939               442.0065
 Red. masses --      2.4062                 4.3219                 4.3275
 Frc consts  --      0.2690                 0.4970                 0.4981
 IR Inten    --      0.2505                 2.6619                 2.4945

                     22                     23                     24
                      A                      A                      A
 Frequencies --    493.3395               536.6515               536.8832
 Red. masses --      1.1719                 1.1387                 1.1390
 Frc consts  --      0.1681                 0.1932                 0.1934
 IR Inten    --      0.0005                 0.0270                 0.0336

                     25                     26                     27
                      A                      A                      A
 Frequencies --    549.1188               549.3277               550.7720
 Red. masses --      1.2123                 1.2134                 1.1481
 Frc consts  --      0.2154                 0.2157                 0.2052
 IR Inten    --    495.0617               495.0108               180.2685

                     28                     29                     30
                      A                      A                      A
 Frequencies --    625.3156               625.8089               654.5723
 Red. masses --      1.1360                 1.1358                 1.2784
 Frc consts  --      0.2617                 0.2621                 0.3227
 IR Inten    --      0.0009                 0.0010               329.6219

                     31                     32                     33
                      A                      A                      A
 Frequencies --    654.8847               661.4838               684.4411
 Red. masses --      1.2775                 1.1551                 1.2847
 Frc consts  --      0.3228                 0.2978                 0.3546
 IR Inten    --    326.8681                 0.0389               340.1578

                     34                     35                     36
                      A                      A                      A
 Frequencies --   1668.3768              1668.5604              1670.5832
 Red. masses --      1.0899                 1.0898                 1.0894
 Frc consts  --      1.7873                 1.7877                 1.7913
 IR Inten    --    279.7975               279.8225                 0.0085

                     37                     38                     39
                      A                      A                      A
 Frequencies --   1670.7949              1673.7762              1684.4436
 Red. masses --      1.0894                 1.0901                 1.0804
 Frc consts  --      1.7917                 1.7993                 1.8061
 IR Inten    --      0.0249               239.3003                 0.0009

                     40                     41                     42
                      A                      A                      A
 Frequencies --   3687.5071              3687.5849              3692.8257
 Red. masses --      1.0438                 1.0438                 1.0443
 Frc consts  --      8.3622                 8.3626                 8.3906
 IR Inten    --      0.2582                 0.3404               669.7268

                     43                     44                     45
                      A                      A                      A
 Frequencies --   3692.9292              3692.9683              3715.3143
 Red. masses --      1.0443                 1.0443                 1.0463
 Frc consts  --      8.3911                 8.3909                 8.5091
 IR Inten    --    679.2706               600.8468                 0.0200

                     46                     47                     48
                      A                      A                      A
 Frequencies --   3762.6496              3762.7294              3763.3104
 Red. masses --      1.0841                 1.0841                 1.0842
 Frc consts  --      9.0430                 9.0434                 9.0471
 IR Inten    --      5.1297                10.1472               387.1024

                     49                     50                     51
                      A                      A                      A
 Frequencies --   3763.4027              3765.3383              3766.1837
 Red. masses --      1.0842                 1.0842                 1.0842
 Frc consts  --      9.0475                 9.0564                 9.0607
 IR Inten    --    381.1978                 2.3441               986.6896

 - Thermochemistry -
 -------------------
 Temperature   298.150 Kelvin.  Pressure   1.00000 Atm.
 Atom     1 has atomic number 22 and mass  47.94795

 Molecular mass:   156.01133 amu.
 Principal axes and moments of inertia in atomic units:
                           1         2         3
     Eigenvalues --  1191.355091191.492691235.23439
           X            0.99907  -0.04301   0.00008
           Y            0.04301   0.99907  -0.00008
           Z           -0.00007   0.00008   1.00000
 This molecule is an asymmetric top.
 Rotational symmetry number  1.
 Warning -- assumption of classical behavior for rotation
           may cause significant error
 Rotational temperatures (Kelvin)      0.07270     0.07269     0.07012
 Rotational constants (GHZ):           1.51486     1.51469     1.46105
 Zero-point vibrational energy     402870.4 (Joules/Mol)
                                   96.28835 (Kcal/Mol)
 Warning -- explicit consideration of  27 degrees of freedom as
           vibrations may cause significant error
 Vibrational temperatures:    143.71   160.17   161.30   226.13   226.39
          (Kelvin)            231.21   247.24   247.45   251.05   364.23
                              365.28   366.98   370.45   371.45   504.56
                              504.89   577.29   612.88   626.76   635.64
                              635.95   709.81   772.12   772.46   790.06
                              790.36   792.44   899.69   900.40   941.78
                              942.23   951.73   984.76  2400.42  2400.69
                             2403.60  2403.90  2408.19  2423.54  5305.50
                             5305.61  5313.15  5313.30  5313.36  5345.51
                             5413.61  5413.73  5414.56  5414.70  5417.48
                             5418.70

 Zero-point correction=                           0.153445 (Hartree/Particle)
 Thermal correction to Energy=                    0.168678
 Thermal correction to Enthalpy=                  0.169623
 Thermal correction to Gibbs Free Energy=         0.114014
 Sum of electronic and zero-point Energies=          -1306.335253
 Sum of electronic and thermal Energies=             -1306.320020
 Sum of electronic and thermal Enthalpies=           -1306.319075
 Sum of electronic and thermal Free Energies=        -1306.374684

                     E (Thermal)             CV                S
                      KCal/Mol        Cal/Mol-Kelvin    Cal/Mol-Kelvin
 Total                  105.847             54.866            117.039
 Electronic               0.000              0.000              1.377
 Translational            0.889              2.981             41.044
 Rotational               0.889              2.981             28.952
 Vibrational            104.070             48.904             45.666
 Vibration     1          0.604              1.949              3.457
 Vibration     2          0.607              1.940              3.246
 Vibration     3          0.607              1.939              3.232
 Vibration     4          0.621              1.895              2.584
 Vibration     5          0.621              1.894              2.581
 Vibration     6          0.622              1.891              2.542
 Vibration     7          0.626              1.877              2.415
 Vibration     8          0.626              1.877              2.414
 Vibration     9          0.627              1.874              2.387
 Vibration    10          0.664              1.757              1.709
 Vibration    11          0.665              1.756              1.703
 Vibration    12          0.665              1.754              1.695
 Vibration    13          0.667              1.750              1.679
 Vibration    14          0.667              1.749              1.674
 Vibration    15          0.728              1.574              1.163
 Vibration    16          0.728              1.573              1.162
 Vibration    17          0.767              1.467              0.958
 Vibration    18          0.788              1.414              0.872
 Vibration    19          0.796              1.393              0.840
 Vibration    20          0.802              1.379              0.821
 Vibration    21          0.802              1.379              0.820
 Vibration    22          0.849              1.265              0.675
 Vibration    23          0.892              1.169              0.573
 Vibration    24          0.892              1.168              0.572
 Vibration    25          0.904              1.142              0.546
 Vibration    26          0.905              1.141              0.546
 Vibration    27          0.906              1.138              0.543

 Normal termination of Gaussian 16 at Thu May 23 18:10:36 2024.
 Gaussian 16:  ES64L-G16RevC.02  7-Dec-2021

 ----------------------------------------------------------------------
 #p HSEH1PBE scf=(maxcycles=500,xqc,maxconventional=50) scrf=(cpcm,solv
 ent=water) geom=allcheck guess=read chkbasis
 ----------------------------------------------------------------------

 Structure from the checkpoint file:  "Ti_3_HSE06.chk_solvated"
 -----
 Title
 -----
 Charge =  3 Multiplicity = 2

                         Standard orientation:
 ---------------------------------------------------------------------
 Center     Atomic      Atomic             Coordinates (Angstroms)
 Number     Number       Type             X           Y           Z
 ---------------------------------------------------------------------
      1         22           0        0.000121   -0.000005   -0.000094
      2          8           0        0.313191   -1.691997    1.161777
      3          1           0        0.114203   -2.609912    0.907124
      4          8           0       -1.618879    0.571745    1.167210
      5          1           0       -2.314102    1.204941    0.916851
      6          8           0        1.308153    1.113658    1.165769
      7          1           0        2.203119    1.400383    0.913207
      8          8           0       -0.312866    1.692183   -1.161655
      9          1           0       -0.714573    1.737338   -2.046559
     10          8           0        1.618899   -0.573022   -1.166826
     11          1           0        1.855989   -0.247050   -2.052287
     12          8           0       -1.308707   -1.112524   -1.166130
     13          1           0       -2.203865   -1.398469   -0.913381
     14          1           0       -1.146756   -1.479590   -2.052413
     15          1           0       -1.856450    0.243694    2.051750
     16          1           0        0.713818   -1.736833    2.047214
     17          1           0        2.314522   -1.205284   -0.915174
     18          1           0        1.145652    1.480654    2.051980
     19          1           0       -0.112542    2.609892   -0.907410
 ---------------------------------------------------------------------

 SCF Done:  E(UHSEH1PBE) =  -1307.12423886     A.U. after   15 cycles

 The electronic state is 2-A.
 Alpha  occ. eigenvalues -- -179.25327 -20.14954 -19.32428 -19.32427 -19.32426
 Alpha  occ. eigenvalues --  -19.32425 -19.32424 -19.32423 -16.82938 -16.82935
 Alpha  occ. eigenvalues --  -16.81953  -2.55151  -1.64728  -1.64726  -1.64515
 Alpha  occ. eigenvalues --   -1.13791  -1.12957  -1.12954  -1.12861  -1.12859
 Alpha  occ. eigenvalues --   -1.12747  -0.64014  -0.63276  -0.63133  -0.63131
 Alpha  occ. eigenvalues --   -0.63077  -0.63073  -0.57857  -0.55778  -0.55774
 Alpha  occ. eigenvalues --   -0.53253  -0.53250  -0.52837  -0.44160  -0.44156
 Alpha  occ. eigenvalues --   -0.42692  -0.42689  -0.42545  -0.42237  -0.30736
 Alpha virt. eigenvalues --   -0.17870  -0.17867  -0.10257  -0.10251  -0.06089
 Alpha virt. eigenvalues --   -0.02157  -0.02122  -0.02117   0.02758   0.03481
 Alpha virt. eigenvalues --    0.03484   0.06805   0.06901   0.07624   0.07627

  Beta  occ. eigenvalues -- -179.25325 -20.13802 -19.32440 -19.32440 -19.32439
  Beta  occ. eigenvalues --  -19.32438 -19.32437 -19.32436 -16.82305 -16.82299
  Beta  occ. eigenvalues --  -16.80237  -2.51187  -1.62007  -1.61994  -1.57040
  Beta  occ. eigenvalues --   -1.13781  -1.12959  -1.12956  -1.12852  -1.12849
  Beta  occ. eigenvalues --   -1.12702  -0.63818  -0.63227  -0.63100  -0.63098
  Beta  occ. eigenvalues --   -0.63039  -0.63035  -0.57704  -0.55646  -0.55643
  Beta  occ. eigenvalues --   -0.53269  -0.53266  -0.52767  -0.44058  -0.44054
  Beta  occ. eigenvalues --   -0.42688  -0.42685  -0.42535  -0.41821
  Beta virt. eigenvalues --   -0.15886  -0.15883  -0.12162  -0.08846  -0.08843
  Beta virt. eigenvalues --   -0.05991  -0.02097  -0.02093  -0.02089   0.02800
  Beta virt. eigenvalues --    0.03602   0.03606   0.07005   0.07060   0.07679

 Mulliken charges and spin densities:
               1          2
     1  Ti   1.646866   1.032682
     2  O   -0.673062  -0.007985
     3  H    0.446453   0.001345
     4  O   -0.673152  -0.007993
     5  H    0.446574   0.001341
     6  O   -0.672961  -0.007951
     7  H    0.446545   0.001333
     8  O   -0.672899  -0.007958
     9  H    0.451951   0.001193
    10  O   -0.672922  -0.008035
    11  H    0.452023   0.001199
    12  O   -0.672923  -0.007955
    13  H    0.446518   0.001337
    14  H    0.452011   0.001186
    15  H    0.452020   0.001191
    16  H    0.451979   0.001195
    17  H    0.446525   0.001346
    18  H    0.452014   0.001189
    19  H    0.446439   0.001339
 Sum of Mulliken charges =   3.00000   1.00000

 Dipole moment (field-independent basis, Debye):
    X=              0.0004    Y=             -0.0009    Z=              0.0001  Tot=              0.0010
 Quadrupole moment (field-independent basis, Debye-Ang):
   XX=             -7.7876   YY=             -7.8200   ZZ=             -5.9269
   XY=             -0.0021   XZ=              0.0007   YZ=             -0.0077

 Normal termination of Gaussian 16 at Thu May 23 18:12:00 2024.
