 Gaussian 16, Revision C.02,

 ----------------------------------------------------------------------
 #p PBE1PBE empiricaldispersion=gd3 6-31+G(2df,p) opt=(cartesian,calcal
 l,maxcycles=500) freq scf=(maxcycles=500,xqc,maxconventional=50)
 ----------------------------------------------------------------------

 -----
 Title
 -----
 Symbolic Z-matrix:
 Charge =  3 Multiplicity = 2

 SCF Done:  E(UPBE1PBE) =  -1306.14832755     A.U. after   21 cycles
 SCF Done:  E(UPBE1PBE) =  -1306.18459975     A.U. after   19 cycles
 SCF Done:  E(UPBE1PBE) =  -1306.24436886     A.U. after   21 cycles
 SCF Done:  E(UPBE1PBE) =  -1306.29699198     A.U. after   21 cycles
 SCF Done:  E(UPBE1PBE) =  -1306.32804627     A.U. after   22 cycles
 SCF Done:  E(UPBE1PBE) =  -1306.35897521     A.U. after   23 cycles
 SCF Done:  E(UPBE1PBE) =  -1306.38687873     A.U. after   22 cycles
 SCF Done:  E(UPBE1PBE) =  -1306.40864034     A.U. after   22 cycles
 SCF Done:  E(UPBE1PBE) =  -1306.41964261     A.U. after   24 cycles
 SCF Done:  E(UPBE1PBE) =  -1306.42743834     A.U. after   22 cycles
 SCF Done:  E(UPBE1PBE) =  -1306.43825577     A.U. after   22 cycles
 SCF Done:  E(UPBE1PBE) =  -1306.43832319     A.U. after   21 cycles
 SCF Done:  E(UPBE1PBE) =  -1306.43836031     A.U. after   23 cycles
 SCF Done:  E(UPBE1PBE) =  -1306.43846482     A.U. after   16 cycles
 SCF Done:  E(UPBE1PBE) =  -1306.43842234     A.U. after   21 cycles
 SCF Done:  E(UPBE1PBE) =  -1306.43848765     A.U. after   15 cycles
 SCF Done:  E(UPBE1PBE) =  -1306.43849054     A.U. after   15 cycles
 SCF Done:  E(UPBE1PBE) =  -1306.43849267     A.U. after   13 cycles
 Optimization completed.
    -- Stationary point found.
 Normal termination of Gaussian 16 at Thu May 23 17:51:46 2024.

 ----------------------------------------------------------------------
 #P Geom=AllCheck Guess=TCheck SCRF=Check GenChk UPBE1PBE/6-31+G(2df,p)
  Freq
 ----------------------------------------------------------------------

 Structure from the checkpoint file:  "Ti_3_PBE0.chk"
 -----
 Title
 -----
 Charge =  3 Multiplicity = 2

 SCF Done:  E(UPBE1PBE) =  -1306.43849267     A.U. after    1 cycles

  Exact polarizability:      57.405      -0.001      57.402       0.001       0.002      58.380
 Approx polarizability:      69.887       0.002      69.886      -0.002       0.007      73.236

                      1                      2                      3
                      A                      A                      A
 Frequencies --    100.7228               111.5554               112.0133
 Red. masses --      4.8247                 4.4603                 4.4686
 Frc consts  --      0.0288                 0.0327                 0.0330
 IR Inten    --      0.6603                 0.8117                 0.7987

                      4                      5                      6
                      A                      A                      A
 Frequencies --    156.3160               156.5310               160.9506
 Red. masses --      4.8979                 4.9043                 3.4298
 Frc consts  --      0.0705                 0.0708                 0.0523
 IR Inten    --      0.0000                 0.0000                 0.0000

                      7                      8                      9
                      A                      A                      A
 Frequencies --    170.1405               170.5189               173.0389
 Red. masses --      3.7855                 3.7891                 4.4790
 Frc consts  --      0.0646                 0.0649                 0.0790
 IR Inten    --      0.6110                 0.6040                 0.4091

                     10                     11                     12
                      A                      A                      A
 Frequencies --    248.0103               248.3829               257.1518
 Red. masses --      1.1543                 1.1541                 1.0764
 Frc consts  --      0.0418                 0.0420                 0.0419
 IR Inten    --      0.0000                 0.0000                 0.0013

                     13                     14                     15
                      A                      A                      A
 Frequencies --    258.2780               258.4353               350.5899
 Red. masses --      1.0901                 1.0888                 3.5604
 Frc consts  --      0.0428                 0.0428                 0.2578
 IR Inten    --      2.4347                 2.4684                 0.0000

                     16                     17                     18
                      A                      A                      A
 Frequencies --    350.6765               402.8020               426.7237
 Red. masses --      3.5673                 1.3692                 5.9866
 Frc consts  --      0.2585                 0.1309                 0.6423
 IR Inten    --      0.0000                29.3483                 0.0000

                     19                     20                     21
                      A                      A                      A
 Frequencies --    435.7902               441.4579               441.6720
 Red. masses --      2.3163                 4.3384                 4.3358
 Frc consts  --      0.2592                 0.4981                 0.4983
 IR Inten    --      0.3643                 2.4745                 2.4175

                     22                     23                     24
                      A                      A                      A
 Frequencies --    493.2950               536.8959               537.0164
 Red. masses --      1.1709                 1.1390                 1.1391
 Frc consts  --      0.1679                 0.1934                 0.1935
 IR Inten    --      0.0000                 0.0001                 0.0001

                     25                     26                     27
                      A                      A                      A
 Frequencies --    549.2629               549.3075               550.4064
 Red. masses --      1.2169                 1.2171                 1.1486
 Frc consts  --      0.2163                 0.2164                 0.2050
 IR Inten    --    507.1725               504.4173               181.3898

                     28                     29                     30
                      A                      A                      A
 Frequencies --    628.0989               628.3789               657.6382
 Red. masses --      1.1376                 1.1376                 1.2749
 Frc consts  --      0.2644                 0.2647                 0.3249
 IR Inten    --      0.0000                 0.0000               322.1833

                     31                     32                     33
                      A                      A                      A
 Frequencies --    657.8818               664.8420               687.5192
 Red. masses --      1.2747                 1.1563                 1.2839
 Frc consts  --      0.3251                 0.3011                 0.3576
 IR Inten    --    320.8870                 0.0002               340.9505

                     34                     35                     36
                      A                      A                      A
 Frequencies --   1669.7408              1669.8479              1671.8586
 Red. masses --      1.0897                 1.0897                 1.0892
 Frc consts  --      1.7899                 1.7902                 1.7938
 IR Inten    --    278.3168               278.3826                 0.0000

                     37                     38                     39
                      A                      A                      A
 Frequencies --   1671.9876              1674.9134              1685.6989
 Red. masses --      1.0892                 1.0898                 1.0803
 Frc consts  --      1.7941                 1.8014                 1.8087
 IR Inten    --      0.0000               238.6884                 0.0000

                     40                     41                     42
                      A                      A                      A
 Frequencies --   3692.1340              3692.1816              3697.6476
 Red. masses --      1.0438                 1.0438                 1.0443
 Frc consts  --      8.3833                 8.3836                 8.4128
 IR Inten    --      0.0004                 0.0039               636.8657

                     43                     44                     45
                      A                      A                      A
 Frequencies --   3697.6756              3697.7313              3720.0020
 Red. masses --      1.0443                 1.0443                 1.0463
 Frc consts  --      8.4130                 8.4133                 8.5312
 IR Inten    --    657.3425               654.5525                 0.0001

                     46                     47                     48
                      A                      A                      A
 Frequencies --   3767.4135              3767.4645              3768.0585
 Red. masses --      1.0840                 1.0840                 1.0841
 Frc consts  --      9.0649                 9.0652                 9.0690
 IR Inten    --      0.0059                 0.0850               394.3764

                     49                     50                     51
                      A                      A                      A
 Frequencies --   3768.1164              3770.0249              3770.8564
 Red. masses --      1.0841                 1.0840                 1.0841
 Frc consts  --      9.0693                 9.0779                 9.0822
 IR Inten    --    394.7937                 0.0338               982.2923

 - Thermochemistry -
 -------------------
 Temperature   298.150 Kelvin.  Pressure   1.00000 Atm.
 Atom     1 has atomic number 22 and mass  47.94795

 Molecular mass:   156.01133 amu.
 Principal axes and moments of inertia in atomic units:
                           1         2         3
     Eigenvalues --  1190.931421191.085881234.16864
           X            0.99999   0.00332  -0.00000
           Y           -0.00332   0.99999   0.00007
           Z            0.00000  -0.00007   1.00000
 This molecule is an asymmetric top.
 Rotational symmetry number  1.
 Warning -- assumption of classical behavior for rotation
           may cause significant error
 Rotational temperatures (Kelvin)      0.07273     0.07272     0.07018
 Rotational constants (GHZ):           1.51540     1.51521     1.46231
 Zero-point vibrational energy     403295.0 (Joules/Mol)
                                   96.38981 (Kcal/Mol)
 Warning -- explicit consideration of  27 degrees of freedom as
           vibrations may cause significant error
 Vibrational temperatures:    144.92   160.50   161.16   224.90   225.21
          (Kelvin)            231.57   244.79   245.34   248.96   356.83
                              357.37   369.98   371.60   371.83   504.42
                              504.55   579.54   613.96   627.00   635.16
                              635.47   709.74   772.47   772.65   790.27
                              790.33   791.91   903.69   904.10   946.19
                              946.55   956.56   989.19  2402.38  2402.54
                             2405.43  2405.62  2409.83  2425.34  5312.16
                             5312.23  5320.09  5320.13  5320.21  5352.25
                             5420.47  5420.54  5421.40  5421.48  5424.22
                             5425.42

 Zero-point correction=                           0.153607 (Hartree/Particle)
 Thermal correction to Energy=                    0.168849
 Thermal correction to Enthalpy=                  0.169793
 Thermal correction to Gibbs Free Energy=         0.114151
 Sum of electronic and zero-point Energies=          -1306.284886
 Sum of electronic and thermal Energies=             -1306.269644
 Sum of electronic and thermal Enthalpies=           -1306.268699
 Sum of electronic and thermal Free Energies=        -1306.324341

                     E (Thermal)             CV                S
                      KCal/Mol        Cal/Mol-Kelvin    Cal/Mol-Kelvin
 Total                  105.954             54.844            117.108
 Electronic               0.000              0.000              1.377
 Translational            0.889              2.981             41.044
 Rotational               0.889              2.981             28.950
 Vibrational            104.177             48.883             45.737
 Vibration     1          0.604              1.949              3.440
 Vibration     2          0.607              1.940              3.242
 Vibration     3          0.607              1.940              3.234
 Vibration     4          0.620              1.896              2.594
 Vibration     5          0.620              1.895              2.591
 Vibration     6          0.622              1.890              2.539
 Vibration     7          0.625              1.879              2.434
 Vibration     8          0.626              1.879              2.430
 Vibration     9          0.627              1.876              2.402
 Vibration    10          0.662              1.766              1.745
 Vibration    11          0.662              1.765              1.742
 Vibration    12          0.667              1.751              1.681
 Vibration    13          0.667              1.749              1.673
 Vibration    14          0.667              1.748              1.672
 Vibration    15          0.727              1.574              1.164
 Vibration    16          0.728              1.574              1.163
 Vibration    17          0.768              1.464              0.952
 Vibration    18          0.788              1.412              0.869
 Vibration    19          0.796              1.392              0.840
 Vibration    20          0.801              1.380              0.822
 Vibration    21          0.801              1.379              0.821
 Vibration    22          0.849              1.265              0.675
 Vibration    23          0.892              1.168              0.572
 Vibration    24          0.892              1.168              0.572
 Vibration    25          0.905              1.141              0.546
 Vibration    26          0.905              1.141              0.546
 Vibration    27          0.906              1.139              0.543

 Optimization completed.
    -- Stationary point found.
 Normal termination of Gaussian 16 at Thu May 23 17:53:39 2024.
 Gaussian 16:  ES64L-G16RevC.02  7-Dec-2021

 ----------------------------------------------------------------------
 #p PBE1PBE empiricaldispersion=gd3 scf=(maxcycles=500,xqc,maxconventio
 nal=50) scrf=(cpcm,solvent=water) geom=allcheck guess=read chkbasis
 ----------------------------------------------------------------------

 Structure from the checkpoint file:  "Ti_3_PBE0.chk_solvated"
 -----
 Title
 -----
 Charge =  3 Multiplicity = 2

                         Standard orientation:
 ---------------------------------------------------------------------
 Center     Atomic      Atomic             Coordinates (Angstroms)
 Number     Number       Type             X           Y           Z
 ---------------------------------------------------------------------
      1         22           0        0.000002   -0.000007   -0.000004
      2          8           0       -1.341108   -1.071863    1.166337
      3          1           0       -2.246492   -1.326711    0.916548
      4          8           0       -0.259129    1.699409    1.163079
      5          1           0       -0.026450    2.610495    0.912380
      6          8           0        1.600240   -0.623135    1.165788
      7          1           0        2.273259   -1.280611    0.917124
      8          8           0        1.341112    1.071882   -1.166317
      9          1           0        1.188417    1.447893   -2.050553
     10          8           0        0.259095   -1.699427   -1.163075
     11          1           0        0.662490   -1.756566   -2.046578
     12          8           0       -1.600218    0.623147   -1.165807
     13          1           0       -2.273196    1.280672   -0.917154
     14          1           0       -1.850187    0.300925   -2.049129
     15          1           0       -0.662663    1.756550    2.046519
     16          1           0       -1.188426   -1.447833    2.050593
     17          1           0        0.026577   -2.610528   -0.912294
     18          1           0        1.850172   -0.300933    2.049128
     19          1           0        2.246513    1.326686   -0.916544
 ---------------------------------------------------------------------

 SCF Done:  E(UPBE1PBE) =  -1307.07402917     A.U. after   15 cycles

 The electronic state is 2-A.
 Alpha  occ. eigenvalues -- -179.26466 -20.16604 -19.33827 -19.33827 -19.33827
 Alpha  occ. eigenvalues --  -19.33827 -19.33822 -19.33822 -16.85032 -16.85031
 Alpha  occ. eigenvalues --  -16.84051  -2.56777  -1.66392  -1.66391  -1.66194
 Alpha  occ. eigenvalues --   -1.15438  -1.14605  -1.14602  -1.14507  -1.14503
 Alpha  occ. eigenvalues --   -1.14394  -0.65521  -0.64787  -0.64644  -0.64640
 Alpha  occ. eigenvalues --   -0.64592  -0.64588  -0.59402  -0.57334  -0.57330
 Alpha  occ. eigenvalues --   -0.54770  -0.54768  -0.54358  -0.45664  -0.45659
 Alpha  occ. eigenvalues --   -0.44201  -0.44196  -0.44052  -0.43788  -0.32326
 Alpha virt. eigenvalues --   -0.16383  -0.16380  -0.08811  -0.08809  -0.04861
 Alpha virt. eigenvalues --   -0.01028  -0.00991  -0.00987   0.03111   0.04840
 Alpha virt. eigenvalues --    0.04844   0.07819   0.08251   0.08542   0.08545

  Beta  occ. eigenvalues -- -179.26462 -20.15418 -19.33842 -19.33842 -19.33841
  Beta  occ. eigenvalues --  -19.33841 -19.33836 -19.33836 -16.84379 -16.84376
  Beta  occ. eigenvalues --  -16.82300  -2.52780  -1.63625  -1.63618  -1.58644
  Beta  occ. eigenvalues --   -1.15430  -1.14610  -1.14606  -1.14500  -1.14497
  Beta  occ. eigenvalues --   -1.14351  -0.65324  -0.64739  -0.64612  -0.64607
  Beta  occ. eigenvalues --   -0.64555  -0.64551  -0.59245  -0.57195  -0.57191
  Beta  occ. eigenvalues --   -0.54791  -0.54789  -0.54291  -0.45560  -0.45556
  Beta  occ. eigenvalues --   -0.44198  -0.44194  -0.44044  -0.43358
  Beta virt. eigenvalues --   -0.14335  -0.14332  -0.10575  -0.07338  -0.07337
  Beta virt. eigenvalues --   -0.04768  -0.00970  -0.00967  -0.00964   0.03153
  Beta virt. eigenvalues --    0.04967   0.04970   0.08067   0.08354   0.08595

 Mulliken charges and spin densities:
               1          2
     1  Ti   1.688934   1.039100
     2  O   -0.680582  -0.008998
     3  H    0.446908   0.001309
     4  O   -0.680656  -0.008990
     5  H    0.446874   0.001310
     6  O   -0.680740  -0.009016
     7  H    0.446955   0.001309
     8  O   -0.680575  -0.008997
     9  H    0.452280   0.001174
    10  O   -0.680644  -0.008993
    11  H    0.452230   0.001176
    12  O   -0.680745  -0.009015
    13  H    0.446956   0.001309
    14  H    0.452259   0.001177
    15  H    0.452231   0.001176
    16  H    0.452281   0.001174
    17  H    0.446869   0.001310
    18  H    0.452258   0.001177
    19  H    0.446909   0.001309
 Sum of Mulliken charges =   3.00000   1.00000

 Dipole moment (field-independent basis, Debye):
    X=              0.0001    Y=             -0.0001    Z=              0.0000  Tot=              0.0001
 Quadrupole moment (field-independent basis, Debye-Ang):
   XX=             -7.7803   YY=             -7.7911   ZZ=             -5.9905
   XY=              0.0059   XZ=              0.0043   YZ=              0.0034

 Normal termination of Gaussian 16 at Thu May 23 17:54:08 2024.
