 Gaussian 16, Revision C.02,

 ----------------------------------------------------------------------
 #p PBE1PBE empiricaldispersion=gd3 6-31+G(2df,p) opt=(cartesian,calcal
 l,maxcycles=500) freq scf=(maxcycles=500,xqc,maxconventional=50)
 ----------------------------------------------------------------------

 -----
 Title
 -----
 Symbolic Z-matrix:
 Charge =  2 Multiplicity = 4

 SCF Done:  E(UPBE1PBE) =  -1401.23091993     A.U. after   17 cycles
 SCF Done:  E(UPBE1PBE) =  -1401.26518918     A.U. after   15 cycles
 SCF Done:  E(UPBE1PBE) =  -1401.32098265     A.U. after   16 cycles
 SCF Done:  E(UPBE1PBE) =  -1401.37948242     A.U. after   17 cycles
 SCF Done:  E(UPBE1PBE) =  -1401.39547012     A.U. after   17 cycles
 SCF Done:  E(UPBE1PBE) =  -1401.41815559     A.U. after   16 cycles
 SCF Done:  E(UPBE1PBE) =  -1401.45205456     A.U. after   17 cycles
 SCF Done:  E(UPBE1PBE) =  -1401.47120931     A.U. after   16 cycles
 SCF Done:  E(UPBE1PBE) =  -1401.47937842     A.U. after   16 cycles
 SCF Done:  E(UPBE1PBE) =  -1401.48337061     A.U. after   16 cycles
 SCF Done:  E(UPBE1PBE) =  -1401.48749583     A.U. after    9 cycles
 SCF Done:  E(UPBE1PBE) =  -1401.48749641     A.U. after   11 cycles
 SCF Done:  E(UPBE1PBE) =  -1401.48749485     A.U. after   11 cycles
 SCF Done:  E(UPBE1PBE) =  -1401.48749543     A.U. after   10 cycles
 SCF Done:  E(UPBE1PBE) =  -1401.48749656     A.U. after    5 cycles
 SCF Done:  E(UPBE1PBE) =  -1401.48749426     A.U. after   11 cycles
 SCF Done:  E(UPBE1PBE) =  -1401.48749233     A.U. after    9 cycles
 SCF Done:  E(UPBE1PBE) =  -1401.48749589     A.U. after    5 cycles
 Optimization completed.
    -- Stationary point found.
 Normal termination of Gaussian 16 at Thu May 23 18:40:10 2024.

 ----------------------------------------------------------------------
 #P Geom=AllCheck Guess=TCheck SCRF=Check GenChk UPBE1PBE/6-31+G(2df,p)
  Freq
 ----------------------------------------------------------------------

 Structure from the checkpoint file:  "V_2_PBE0.chk"
 -----
 Title
 -----
 Charge =  2 Multiplicity = 4

 SCF Done:  E(UPBE1PBE) =  -1401.48749589     A.U. after    1 cycles

  Exact polarizability:      56.192      -0.002      55.771       0.002       0.000      55.775
 Approx polarizability:      66.098       0.002      67.157      -0.001       0.002      67.167

                      1                      2                      3
                      A                      A                      A
 Frequencies --     92.9166                93.3637               104.3808
 Red. masses --      2.4134                 2.4251                 4.2417
 Frc consts  --      0.0123                 0.0125                 0.0272
 IR Inten    --      0.3534                 0.3263                 0.0009

                      4                      5                      6
                      A                      A                      A
 Frequencies --    116.0557               123.0511               123.1237
 Red. masses --      4.1494                 5.0757                 5.0585
 Frc consts  --      0.0329                 0.0453                 0.0452
 IR Inten    --      0.0013                 0.0804                 0.0728

                      7                      8                      9
                      A                      A                      A
 Frequencies --    135.9130               136.1830               146.4310
 Red. masses --      1.9576                 1.9879                 4.3128
 Frc consts  --      0.0213                 0.0217                 0.0545
 IR Inten    --      6.8892                 6.7788                 2.9944

                     10                     11                     12
                      A                      A                      A
 Frequencies --    152.5650               153.3267               195.7773
 Red. masses --      1.5816                 1.5068                 1.2234
 Frc consts  --      0.0217                 0.0209                 0.0276
 IR Inten    --      0.0043                 0.0094                31.8256

                     13                     14                     15
                      A                      A                      A
 Frequencies --    196.0229               264.6036               296.2952
 Red. masses --      1.2238                 1.1018                 1.1217
 Frc consts  --      0.0277                 0.0455                 0.0580
 IR Inten    --     32.0601                 0.0602               169.5635

                     16                     17                     18
                      A                      A                      A
 Frequencies --    302.5629               302.5980               339.1303
 Red. masses --      5.6345                 5.6417                 5.5260
 Frc consts  --      0.3039                 0.3044                 0.3745
 IR Inten    --      0.1709                 0.1635                 0.0003

                     19                     20                     21
                      A                      A                      A
 Frequencies --    356.7426               357.3926               370.8183
 Red. masses --      1.3531                 1.3555                 3.3602
 Frc consts  --      0.1015                 0.1020                 0.2722
 IR Inten    --    116.8368               113.7806                26.7784

                     22                     23                     24
                      A                      A                      A
 Frequencies --    371.0023               380.0319               428.2531
 Red. masses --      3.3768                 3.7693                 1.1746
 Frc consts  --      0.2738                 0.3207                 0.1269
 IR Inten    --     27.5919                19.0751               459.9122

                     25                     26                     27
                      A                      A                      A
 Frequencies --    443.1217               450.4559               450.7691
 Red. masses --      1.1007                 1.1552                 1.1540
 Frc consts  --      0.1273                 0.1381                 0.1382
 IR Inten    --      0.7542               215.3059               213.3626

                     28                     29                     30
                      A                      A                      A
 Frequencies --    525.8032               526.2707               575.1401
 Red. masses --      1.1569                 1.1576                 1.1578
 Frc consts  --      0.1885                 0.1889                 0.2257
 IR Inten    --      2.5721                 2.9098                 0.0321

                     31                     32                     33
                      A                      A                      A
 Frequencies --    580.8157               602.7777               603.1570
 Red. masses --      1.3037                 1.2036                 1.2035
 Frc consts  --      0.2591                 0.2577                 0.2580
 IR Inten    --    186.6375               169.8749               170.0711

                     34                     35                     36
                      A                      A                      A
 Frequencies --   1661.4190              1662.7985              1662.9013
 Red. masses --      1.0874                 1.0868                 1.0868
 Frc consts  --      1.7685                 1.7705                 1.7707
 IR Inten    --    178.9079               110.3418               108.9857

                     37                     38                     39
                      A                      A                      A
 Frequencies --   1673.4491              1673.5733              1681.2491
 Red. masses --      1.0857                 1.0857                 1.0819
 Frc consts  --      1.7914                 1.7916                 1.8019
 IR Inten    --    156.0882               155.0203                 0.0101

                     40                     41                     42
                      A                      A                      A
 Frequencies --   3808.1350              3810.1469              3810.1745
 Red. masses --      1.0454                 1.0452                 1.0452
 Frc consts  --      8.9322                 8.9397                 8.9398
 IR Inten    --    253.0053                 7.1743                 8.0914

                     43                     44                     45
                      A                      A                      A
 Frequencies --   3811.9484              3811.9710              3816.2481
 Red. masses --      1.0451                 1.0451                 1.0461
 Frc consts  --      8.9476                 8.9477                 8.9759
 IR Inten    --    225.1352               226.3050                 0.0105

                     46                     47                     48
                      A                      A                      A
 Frequencies --   3894.1330              3894.1553              3895.7379
 Red. masses --      1.0831                 1.0831                 1.0831
 Frc consts  --      9.6769                 9.6770                 9.6851
 IR Inten    --      0.2718                 0.2852               289.8219

                     49                     50                     51
                      A                      A                      A
 Frequencies --   3896.3239              3897.4277              3897.4593
 Red. masses --      1.0829                 1.0831                 1.0831
 Frc consts  --      9.6862                 9.6937                 9.6939
 IR Inten    --      0.8128               440.5151               441.5534

 - Thermochemistry -
 -------------------
 Temperature   298.150 Kelvin.  Pressure   1.00000 Atm.
 Atom     1 has atomic number 23 and mass  50.94396

 Molecular mass:   159.00735 amu.
 Principal axes and moments of inertia in atomic units:
                           1         2         3
     Eigenvalues --  1177.756051335.962971336.02665
           X            1.00000   0.00000   0.00001
           Y           -0.00000   0.97460   0.22397
           Z           -0.00001  -0.22397   0.97460
 This molecule is an asymmetric top.
 Rotational symmetry number  1.
 Warning -- assumption of classical behavior for rotation
           may cause significant error
 Rotational temperatures (Kelvin)      0.07354     0.06483     0.06483
 Rotational constants (GHZ):           1.53236     1.35089     1.35083
 Zero-point vibrational energy     398093.9 (Joules/Mol)
                                   95.14673 (Kcal/Mol)
 Warning -- explicit consideration of  33 degrees of freedom as
           vibrations may cause significant error
 Vibrational temperatures:    133.69   134.33   150.18   166.98   177.04
          (Kelvin)            177.15   195.55   195.94   210.68   219.51
                              220.60   281.68   282.03   380.71   426.30
                              435.32   435.37   487.93   513.27   514.21
                              533.52   533.79   546.78   616.16   637.55
                              648.11   648.56   756.51   757.19   827.50
                              835.66   867.26   867.81  2390.41  2392.40
                             2392.54  2407.72  2407.90  2418.94  5479.06
                             5481.95  5481.99  5484.54  5484.58  5490.73
                             5602.79  5602.82  5605.10  5605.94  5607.53
                             5607.57

 Zero-point correction=                           0.151626 (Hartree/Particle)
 Thermal correction to Energy=                    0.169143
 Thermal correction to Enthalpy=                  0.170087
 Thermal correction to Gibbs Free Energy=         0.108427
 Sum of electronic and zero-point Energies=          -1401.335870
 Sum of electronic and thermal Energies=             -1401.318353
 Sum of electronic and thermal Enthalpies=           -1401.317409
 Sum of electronic and thermal Free Energies=        -1401.379069

                     E (Thermal)             CV                S
                      KCal/Mol        Cal/Mol-Kelvin    Cal/Mol-Kelvin
 Total                  106.139             59.237            129.774
 Electronic               0.000              0.000              2.755
 Translational            0.889              2.981             41.100
 Rotational               0.889              2.981             29.132
 Vibrational            104.361             53.276             56.787
 Vibration     1          0.602              1.954              3.598
 Vibration     2          0.602              1.954              3.588
 Vibration     3          0.605              1.946              3.371
 Vibration     4          0.608              1.936              3.165
 Vibration     5          0.610              1.930              3.052
 Vibration     6          0.610              1.930              3.051
 Vibration     7          0.614              1.917              2.861
 Vibration     8          0.614              1.917              2.857
 Vibration     9          0.617              1.907              2.718
 Vibration    10          0.619              1.900              2.640
 Vibration    11          0.619              1.899              2.631
 Vibration    12          0.636              1.846              2.172
 Vibration    13          0.636              1.845              2.170
 Vibration    14          0.671              1.738              1.631
 Vibration    15          0.690              1.681              1.438
 Vibration    16          0.694              1.669              1.403
 Vibration    17          0.694              1.669              1.402
 Vibration    18          0.719              1.597              1.216
 Vibration    19          0.732              1.561              1.136
 Vibration    20          0.733              1.560              1.133
 Vibration    21          0.743              1.532              1.076
 Vibration    22          0.743              1.532              1.076
 Vibration    23          0.750              1.513              1.039
 Vibration    24          0.790              1.409              0.864
 Vibration    25          0.803              1.376              0.817
 Vibration    26          0.809              1.360              0.794
 Vibration    27          0.810              1.359              0.793
 Vibration    28          0.881              1.193              0.597
 Vibration    29          0.881              1.192              0.596
 Vibration    30          0.931              1.085              0.494
 Vibration    31          0.938              1.073              0.484
 Vibration    32          0.961              1.026              0.445
 Vibration    33          0.962              1.025              0.444

 Normal termination of Gaussian 16 at Thu May 23 18:42:01 2024.
 Gaussian 16:  ES64L-G16RevC.02  7-Dec-2021

 ----------------------------------------------------------------------
 #p PBE1PBE empiricaldispersion=gd3 scf=(maxcycles=500,xqc,maxconventio
 nal=50) scrf=(cpcm,solvent=water) geom=allcheck guess=read chkbasis
 ----------------------------------------------------------------------

 Structure from the checkpoint file:  "V_2_PBE0.chk_solvated"
 -----
 Title
 -----
 Charge =  2 Multiplicity = 4

                         Standard orientation:
 ---------------------------------------------------------------------
 Center     Atomic      Atomic             Coordinates (Angstroms)
 Number     Number       Type             X           Y           Z
 ---------------------------------------------------------------------
      1         23           0        0.000053   -0.000076   -0.000092
      2          8           0        1.349267    1.495632    0.750639
      3          1           0        1.199385    2.437632    0.890401
      4          8           0        1.350694   -0.098385   -1.669750
      5          1           0        1.202946   -0.451315   -2.554602
      6          8           0        1.349184   -1.397803    0.920520
      7          1           0        1.200431   -1.987732    1.668326
      8          8           0       -1.350263   -1.498234   -0.744355
      9          1           0       -2.058928   -1.829719   -0.179174
     10          8           0       -1.350107    0.105006    1.669500
     11          1           0       -2.060386    0.758469    1.672612
     12          8           0       -1.348908    1.394084   -0.926248
     13          1           0       -1.198904    2.312232   -1.178963
     14          1           0       -2.060080    1.070456   -1.492831
     15          1           0        2.060480    0.550359   -1.752529
     16          1           0        2.060430    1.242851    1.352190
     17          1           0       -1.201008   -0.136098    2.590910
     18          1           0        2.058566   -1.794613    0.400099
     19          1           0       -1.203074   -2.173177   -1.416766
 ---------------------------------------------------------------------

 SCF Done:  E(UPBE1PBE) =  -1401.76664150     A.U. after   11 cycles

 The electronic state is 4-A.
 Alpha  occ. eigenvalues -- -197.08649 -22.33015 -19.28739 -19.28736 -19.28734
 Alpha  occ. eigenvalues --  -19.28733 -19.28732 -19.28732 -18.79966 -18.79920
 Alpha  occ. eigenvalues --  -18.79920  -2.68963  -1.71251  -1.71137  -1.71136
 Alpha  occ. eigenvalues --   -1.10740  -1.10232  -1.09986  -1.09983  -1.09965
 Alpha  occ. eigenvalues --   -1.09962  -0.61118  -0.60765  -0.60760  -0.60644
 Alpha  occ. eigenvalues --   -0.60035  -0.60029  -0.53049  -0.49886  -0.49885
 Alpha  occ. eigenvalues --   -0.49596  -0.48633  -0.48632  -0.41244  -0.41241
 Alpha  occ. eigenvalues --   -0.40334  -0.38997  -0.38994  -0.38426  -0.23062
 Alpha  occ. eigenvalues --   -0.22719  -0.22717
 Alpha virt. eigenvalues --   -0.03747  -0.00166  -0.00071  -0.00069   0.00034
 Alpha virt. eigenvalues --    0.00036   0.03967   0.07589   0.07591   0.09521
 Alpha virt. eigenvalues --    0.09562   0.09567   0.10197   0.11400   0.11403

  Beta  occ. eigenvalues -- -197.08633 -22.29242 -19.28748 -19.28745 -19.28743
  Beta  occ. eigenvalues --  -19.28742 -19.28741 -19.28741 -18.76827 -18.76671
  Beta  occ. eigenvalues --  -18.76671  -2.56904  -1.58401  -1.57911  -1.57910
  Beta  occ. eigenvalues --   -1.10685  -1.10168  -1.09957  -1.09954  -1.09909
  Beta  occ. eigenvalues --   -1.09906  -0.60970  -0.60650  -0.60644  -0.60574
  Beta  occ. eigenvalues --   -0.59987  -0.59981  -0.52596  -0.49709  -0.49707
  Beta  occ. eigenvalues --   -0.49504  -0.48586  -0.48585  -0.40720  -0.40717
  Beta  occ. eigenvalues --   -0.39872  -0.38817  -0.38814  -0.38291
  Beta virt. eigenvalues --   -0.03549  -0.00073   0.00050   0.00052   0.02189
  Beta virt. eigenvalues --    0.02908   0.02911   0.03391   0.03392   0.04159
  Beta virt. eigenvalues --    0.09256   0.09257   0.09709   0.09888   0.09891

 Mulliken charges and spin densities:
               1          2
     1  V    1.414156   3.088547
     2  O   -0.746135  -0.018679
     3  H    0.424249   0.001333
     4  O   -0.746211  -0.018682
     5  H    0.424322   0.001331
     6  O   -0.746133  -0.018683
     7  H    0.424300   0.001332
     8  O   -0.746254  -0.018621
     9  H    0.419518   0.002577
    10  O   -0.746219  -0.018677
    11  H    0.419600   0.002582
    12  O   -0.746082  -0.018667
    13  H    0.424203   0.001334
    14  H    0.419557   0.002579
    15  H    0.419484   0.002575
    16  H    0.419593   0.002577
    17  H    0.424248   0.001332
    18  H    0.419497   0.002578
    19  H    0.424308   0.001331
 Sum of Mulliken charges =   2.00000   3.00000

 Dipole moment (field-independent basis, Debye):
    X=             -0.0002    Y=             -0.0014    Z=             -0.0002  Tot=              0.0014
 Quadrupole moment (field-independent basis, Debye-Ang):
   XX=            -17.7855   YY=            -16.2500   ZZ=            -16.2286
   XY=             -0.0011   XZ=              0.0000   YZ=              0.0136

 Normal termination of Gaussian 16 at Thu May 23 18:42:23 2024.
