 Gaussian 16, Revision C.02,

 ----------------------------------------------------------------------
 #p BLYP empiricaldispersion=gd3 6-31+G(2df,p) opt=(cartesian,calcall,m
 axcycles=500) freq scf=(maxcycles=500,xqc,maxconventional=50)
 ----------------------------------------------------------------------

 -----
 Title
 -----
 Symbolic Z-matrix:
 Charge =  2 Multiplicity = 4

 SCF Done:  E(UB-LYP) =  -1401.83486978     A.U. after   19 cycles
 SCF Done:  E(UB-LYP) =  -1401.86989574     A.U. after   15 cycles
 SCF Done:  E(UB-LYP) =  -1401.92573710     A.U. after   16 cycles
 SCF Done:  E(UB-LYP) =  -1401.96224543     A.U. after   16 cycles
 SCF Done:  E(UB-LYP) =  -1401.99779932     A.U. after   14 cycles
 SCF Done:  E(UB-LYP) =  -1402.03210458     A.U. after   14 cycles
 SCF Done:  E(UB-LYP) =  -1402.04122562     A.U. after   16 cycles
 SCF Done:  E(UB-LYP) =  -1400.97496906     A.U. after   15 cycles
 SCF Done:  E(UB-LYP) =  -1401.95141976     A.U. after   13 cycles
 SCF Done:  E(UB-LYP) =  -1402.07995565     A.U. after   13 cycles
 SCF Done:  E(UB-LYP) =  -1402.11509288     A.U. after   10 cycles
 SCF Done:  E(UB-LYP) =  -1402.11511332     A.U. after   10 cycles
 SCF Done:  E(UB-LYP) =  -1402.11512312     A.U. after    9 cycles
 SCF Done:  E(UB-LYP) =  -1402.11511775     A.U. after    9 cycles
 SCF Done:  E(UB-LYP) =  -1402.11513008     A.U. after    7 cycles
 SCF Done:  E(UB-LYP) =  -1402.11513033     A.U. after    6 cycles
 SCF Done:  E(UB-LYP) =  -1402.11512558     A.U. after    8 cycles
 SCF Done:  E(UB-LYP) =  -1402.11512456     A.U. after    8 cycles
 Optimization completed.
    -- Stationary point found.
 Normal termination of Gaussian 16 at Thu May 23 18:32:22 2024.

 ----------------------------------------------------------------------
 #P Geom=AllCheck Guess=TCheck SCRF=Check GenChk UBLYP/6-31+G(2df,p) Fr
 eq
 ----------------------------------------------------------------------

 Structure from the checkpoint file:  "V_2_BLYP.chk"
 -----
 Title
 -----
 Charge =  2 Multiplicity = 4

 SCF Done:  E(UB-LYP) =  -1402.11512456     A.U. after    1 cycles

  Exact polarizability:      62.477      -0.003      62.474       0.001       0.003      62.461
 Approx polarizability:      88.262      -0.002      88.265       0.000       0.002      88.270

                      1                      2                      3
                      A                      A                      A
 Frequencies --     76.2706                76.5222                76.9202
 Red. masses --      5.2911                 5.2837                 5.2903
 Frc consts  --      0.0181                 0.0182                 0.0184
 IR Inten    --      0.0000                 0.0000                 0.0000

                      4                      5                      6
                      A                      A                      A
 Frequencies --     95.1616                96.3516                96.6334
 Red. masses --      6.5921                 6.6417                 6.7273
 Frc consts  --      0.0352                 0.0363                 0.0370
 IR Inten    --     12.7292                12.5468                12.8598

                      7                      8                      9
                      A                      A                      A
 Frequencies --    131.4821               132.1127               132.7848
 Red. masses --      4.2885                 4.2558                 4.2387
 Frc consts  --      0.0437                 0.0438                 0.0440
 IR Inten    --      0.2579                 0.2050                 0.2050

                     10                     11                     12
                      A                      A                      A
 Frequencies --    212.0757               212.4675               255.1364
 Red. masses --      1.0078                 1.0078                 1.0614
 Frc consts  --      0.0267                 0.0268                 0.0407
 IR Inten    --      0.0032                 0.0013                 0.0003

                     13                     14                     15
                      A                      A                      A
 Frequencies --    255.3119               255.7115               298.1943
 Red. masses --      1.0616                 1.0619                 5.8649
 Frc consts  --      0.0408                 0.0409                 0.3073
 IR Inten    --      0.0002                 0.0003                 0.0000

                     16                     17                     18
                      A                      A                      A
 Frequencies --    298.4333               323.1342               323.2902
 Red. masses --      5.8647                 1.1171                 1.1171
 Frc consts  --      0.3077                 0.0687                 0.0688
 IR Inten    --      0.0000               379.1411               377.1661

                     19                     20                     21
                      A                      A                      A
 Frequencies --    324.2576               333.0397               333.3227
 Red. masses --      1.1215                 1.0603                 5.4407
 Frc consts  --      0.0695                 0.0693                 0.3561
 IR Inten    --    376.3977                 0.0024                 0.0001

                     22                     23                     24
                      A                      A                      A
 Frequencies --    333.7837               334.1059               367.4351
 Red. masses --      1.0664                 1.0545                 5.1580
 Frc consts  --      0.0700                 0.0693                 0.4103
 IR Inten    --      0.0027                 0.0010                47.5765

                     25                     26                     27
                      A                      A                      A
 Frequencies --    367.7111               367.9173               391.9837
 Red. masses --      5.2120                 5.2383                 1.0079
 Frc consts  --      0.4152                 0.4178                 0.0912
 IR Inten    --     46.2388                45.8933                 0.0277

                     28                     29                     30
                      A                      A                      A
 Frequencies --    537.9017               538.1845               538.7221
 Red. masses --      1.1605                 1.1603                 1.1599
 Frc consts  --      0.1978                 0.1980                 0.1983
 IR Inten    --      0.0003                 0.0001                 0.0001

                     31                     32                     33
                      A                      A                      A
 Frequencies --    576.1656               576.3689               576.9506
 Red. masses --      1.2833                 1.2829                 1.2823
 Frc consts  --      0.2510                 0.2511                 0.2515
 IR Inten    --    178.5748               178.2405               178.2006

                     34                     35                     36
                      A                      A                      A
 Frequencies --   1615.6645              1615.7459              1615.9902
 Red. masses --      1.0899                 1.0899                 1.0899
 Frc consts  --      1.6763                 1.6765                 1.6770
 IR Inten    --    189.6175               189.6300               189.6692

                     37                     38                     39
                      A                      A                      A
 Frequencies --   1618.0293              1618.2016              1624.6938
 Red. masses --      1.0888                 1.0888                 1.0834
 Frc consts  --      1.6795                 1.6798                 1.6850
 IR Inten    --      0.0000                 0.0000                 0.0000

                     40                     41                     42
                      A                      A                      A
 Frequencies --   3626.8471              3626.8606              3626.8755
 Red. masses --      1.0438                 1.0438                 1.0438
 Frc consts  --      8.0897                 8.0898                 8.0898
 IR Inten    --    197.7735               197.5680               197.0246

                     43                     44                     45
                      A                      A                      A
 Frequencies --   3627.2588              3627.2626              3631.1678
 Red. masses --      1.0438                 1.0438                 1.0446
 Frc consts  --      8.0912                 8.0912                 8.1147
 IR Inten    --      0.0004                 0.0008                 0.0000

                     46                     47                     48
                      A                      A                      A
 Frequencies --   3707.4939              3707.5001              3707.5024
 Red. masses --      1.0841                 1.0841                 1.0841
 Frc consts  --      8.7796                 8.7796                 8.7797
 IR Inten    --      0.0009                 0.0004                 0.0000

                     49                     50                     51
                      A                      A                      A
 Frequencies --   3708.4764              3708.4827              3708.4870
 Red. masses --      1.0839                 1.0838                 1.0839
 Frc consts  --      8.7824                 8.7824                 8.7824
 IR Inten    --    329.1157               329.4173               330.8441

 - Thermochemistry -
 -------------------
 Temperature   298.150 Kelvin.  Pressure   1.00000 Atm.
 Atom     1 has atomic number 23 and mass  50.94396

 Molecular mass:   159.00735 amu.
 Principal axes and moments of inertia in atomic units:
                           1         2         3
     Eigenvalues --  1303.545981304.342211305.57004
           X            0.99994  -0.01091  -0.00190
           Y            0.01092   0.99992   0.00702
           Z            0.00182  -0.00704   0.99997
 This molecule is an asymmetric top.
 Rotational symmetry number  1.
 Warning -- assumption of classical behavior for rotation
           may cause significant error
 Rotational temperatures (Kelvin)      0.06644     0.06640     0.06634
 Rotational constants (GHZ):           1.38449     1.38364     1.38234
 Zero-point vibrational energy     380223.4 (Joules/Mol)
                                   90.87557 (Kcal/Mol)
 Warning -- explicit consideration of  33 degrees of freedom as
           vibrations may cause significant error
 Vibrational temperatures:    109.74   110.10   110.67   136.92   138.63
          (Kelvin)            139.03   189.17   190.08   191.05   305.13
                              305.69   367.08   367.34   367.91   429.04
                              429.38   464.92   465.14   466.53   479.17
                              479.58   480.24   480.70   528.66   529.05
                              529.35   563.98   773.92   774.33   775.10
                              828.97   829.27   830.10  2324.58  2324.70
                             2325.05  2327.98  2328.23  2337.57  5218.22
                             5218.24  5218.26  5218.82  5218.82  5224.44
                             5334.26  5334.27  5334.27  5335.67  5335.68
                             5335.69

 Zero-point correction=                           0.144819 (Hartree/Particle)
 Thermal correction to Energy=                    0.162777
 Thermal correction to Enthalpy=                  0.163722
 Thermal correction to Gibbs Free Energy=         0.100705
 Sum of electronic and zero-point Energies=          -1401.970305
 Sum of electronic and thermal Energies=             -1401.952347
 Sum of electronic and thermal Enthalpies=           -1401.951403
 Sum of electronic and thermal Free Energies=        -1402.014419

                     E (Thermal)             CV                S
                      KCal/Mol        Cal/Mol-Kelvin    Cal/Mol-Kelvin
 Total                  102.144             60.195            132.629
 Electronic               0.000              0.000              2.755
 Translational            0.889              2.981             41.100
 Rotational               0.889              2.981             29.186
 Vibrational            100.367             54.234             59.588
 Vibration     1          0.599              1.965              3.985
 Vibration     2          0.599              1.965              3.978
 Vibration     3          0.599              1.965              3.968
 Vibration     4          0.603              1.953              3.551
 Vibration     5          0.603              1.952              3.527
 Vibration     6          0.603              1.952              3.521
 Vibration     7          0.612              1.922              2.924
 Vibration     8          0.612              1.921              2.915
 Vibration     9          0.613              1.921              2.905
 Vibration    10          0.643              1.822              2.026
 Vibration    11          0.644              1.822              2.022
 Vibration    12          0.666              1.754              1.695
 Vibration    13          0.666              1.754              1.694
 Vibration    14          0.666              1.753              1.691
 Vibration    15          0.691              1.677              1.427
 Vibration    16          0.692              1.677              1.426
 Vibration    17          0.708              1.629              1.294
 Vibration    18          0.708              1.629              1.293
 Vibration    19          0.709              1.627              1.289
 Vibration    20          0.715              1.610              1.245
 Vibration    21          0.715              1.609              1.244
 Vibration    22          0.715              1.608              1.242
 Vibration    23          0.716              1.607              1.240
 Vibration    24          0.740              1.539              1.090
 Vibration    25          0.740              1.539              1.089
 Vibration    26          0.741              1.538              1.088
 Vibration    27          0.759              1.487              0.993
 Vibration    28          0.893              1.166              0.570
 Vibration    29          0.893              1.166              0.569
 Vibration    30          0.894              1.164              0.568
 Vibration    31          0.933              1.083              0.493
 Vibration    32          0.933              1.082              0.492
 Vibration    33          0.933              1.081              0.491

 Normal termination of Gaussian 16 at Thu May 23 18:33:49 2024.
 Gaussian 16:  ES64L-G16RevC.02  7-Dec-2021

 ----------------------------------------------------------------------
 #p BLYP empiricaldispersion=gd3 scf=(maxcycles=500,xqc,maxconventional
 =50) scrf=(cpcm,solvent=water) geom=allcheck guess=read chkbasis
 ----------------------------------------------------------------------

 Structure from the checkpoint file:  "V_2_BLYP.chk_solvated"
 -----
 Title
 -----
 Charge =  2 Multiplicity = 4

                         Standard orientation:
 ---------------------------------------------------------------------
 Center     Atomic      Atomic             Coordinates (Angstroms)
 Number     Number       Type             X           Y           Z
 ---------------------------------------------------------------------
      1         23           0       -0.000001   -0.000011    0.000000
      2          8           0       -1.564112   -0.004613    1.495147
      3          1           0       -2.368685   -0.558846    1.492164
      4          8           0       -1.056049    1.537750   -1.096531
      5          1           0       -0.773927    1.952850   -1.934736
      6          8           0        1.061870    1.522659    1.111834
      7          1           0        1.728772    1.374121    1.810180
      8          8           0        1.564221    0.004629   -1.495030
      9          1           0        1.600020   -0.545509   -2.301602
     10          8           0        1.056011   -1.537828    1.096474
     11          1           0        0.773291   -1.953802    1.934046
     12          8           0       -1.061939   -1.522582   -1.111894
     13          1           0       -1.729301   -1.373923   -1.809773
     14          1           0       -0.962873   -2.489527   -1.013360
     15          1           0       -1.906276    1.949053   -0.846597
     16          1           0       -1.599487    0.545128    2.302008
     17          1           0        1.906808   -1.948306    0.847129
     18          1           0        0.963194    2.489588    1.012760
     19          1           0        2.368479    0.559320   -1.492221
 ---------------------------------------------------------------------

 SCF Done:  E(UB-LYP) =  -1402.38968168     A.U. after    8 cycles

 The electronic state is 4-A.
 Alpha  occ. eigenvalues -- -195.72231 -21.81071 -18.86367 -18.86367 -18.86362
 Alpha  occ. eigenvalues --  -18.86362 -18.86358 -18.86358 -18.39596 -18.39595
 Alpha  occ. eigenvalues --  -18.39595  -2.48592  -1.56186  -1.56185  -1.56184
 Alpha  occ. eigenvalues --   -0.97719  -0.97182  -0.97177  -0.97172  -0.97130
 Alpha  occ. eigenvalues --   -0.97125  -0.52818  -0.52814  -0.52810  -0.52736
 Alpha  occ. eigenvalues --   -0.52732  -0.52727  -0.45229  -0.42453  -0.42449
 Alpha  occ. eigenvalues --   -0.41503  -0.41499  -0.41490  -0.32374  -0.32368
 Alpha  occ. eigenvalues --   -0.32365  -0.31904  -0.31897  -0.31894  -0.14685
 Alpha  occ. eigenvalues --   -0.14685  -0.14683
 Alpha virt. eigenvalues --   -0.06706  -0.06673  -0.06671  -0.02973  -0.02969
 Alpha virt. eigenvalues --   -0.02965   0.02604   0.02810   0.02816   0.06393
 Alpha virt. eigenvalues --    0.06395   0.06398   0.06638   0.06640   0.06640

  Beta  occ. eigenvalues -- -195.72209 -21.77957 -18.86349 -18.86349 -18.86344
  Beta  occ. eigenvalues --  -18.86344 -18.86340 -18.86340 -18.37195 -18.37194
  Beta  occ. eigenvalues --  -18.37193  -2.38993  -1.46838  -1.46836  -1.46833
  Beta  occ. eigenvalues --   -0.97648  -0.97106  -0.97101  -0.97096  -0.97074
  Beta  occ. eigenvalues --   -0.97069  -0.52756  -0.52752  -0.52747  -0.52693
  Beta  occ. eigenvalues --   -0.52689  -0.52685  -0.44892  -0.42266  -0.42262
  Beta  occ. eigenvalues --   -0.41427  -0.41423  -0.41414  -0.32045  -0.32039
  Beta  occ. eigenvalues --   -0.32035  -0.31772  -0.31766  -0.31762
  Beta virt. eigenvalues --   -0.06534  -0.04679  -0.04678  -0.04676  -0.03146
  Beta virt. eigenvalues --   -0.03143  -0.02921  -0.02917  -0.02914   0.02707
  Beta virt. eigenvalues --    0.03574   0.03580   0.06461   0.06464   0.06466

 Mulliken charges and spin densities:
               1          2
     1  V    1.291653   3.033415
     2  O   -0.681991  -0.009771
     3  H    0.400006   0.002105
     4  O   -0.682067  -0.009703
     5  H    0.400098   0.002082
     6  O   -0.682024  -0.009786
     7  H    0.400013   0.002089
     8  O   -0.681993  -0.009771
     9  H    0.400064   0.002080
    10  O   -0.682051  -0.009703
    11  H    0.400097   0.002082
    12  O   -0.682006  -0.009786
    13  H    0.400009   0.002088
    14  H    0.400051   0.002094
    15  H    0.400014   0.002104
    16  H    0.400062   0.002079
    17  H    0.400012   0.002104
    18  H    0.400050   0.002094
    19  H    0.400004   0.002105
 Sum of Mulliken charges =   2.00000   3.00000

 Dipole moment (field-independent basis, Debye):
    X=              0.0000    Y=              0.0002    Z=             -0.0000  Tot=              0.0002
 Quadrupole moment (field-independent basis, Debye-Ang):
   XX=            -16.5093   YY=            -16.5055   ZZ=            -16.5390
   XY=             -0.0047   XZ=             -0.0084   YZ=              0.0073

 Normal termination of Gaussian 16 at Thu May 23 18:34:21 2024.
