 Gaussian 16, Revision C.02,

 ----------------------------------------------------------------------
 #p HSEH1PBE 6-31+G(2df,p) opt=(cartesian,calcall,maxcycles=500) freq s
 cf=(maxcycles=500,xqc,maxconventional=50)
 ----------------------------------------------------------------------

 -----
 Title
 -----
 Symbolic Z-matrix:
 Charge =  3 Multiplicity = 3

 SCF Done:  E(UHSEH1PBE) =  -1400.73668397     A.U. after   21 cycles
 SCF Done:  E(UHSEH1PBE) =  -1400.76518394     A.U. after   21 cycles
 SCF Done:  E(UHSEH1PBE) =  -1400.81345137     A.U. after   22 cycles
 SCF Done:  E(UHSEH1PBE) =  -1400.86667426     A.U. after   23 cycles
 SCF Done:  E(UHSEH1PBE) =  -1400.87997444     A.U. after   23 cycles
 SCF Done:  E(UHSEH1PBE) =  -1400.91493763     A.U. after   22 cycles
 SCF Done:  E(UHSEH1PBE) =  -1400.94541170     A.U. after   23 cycles
 SCF Done:  E(UHSEH1PBE) =  -1400.95609290     A.U. after   22 cycles
 SCF Done:  E(UHSEH1PBE) =  -1400.96075492     A.U. after   21 cycles
 SCF Done:  E(UHSEH1PBE) =  -1400.96297178     A.U. after   22 cycles
 SCF Done:  E(UHSEH1PBE) =  -1400.93788007     A.U. after   28 cycles
 SCF Done:  E(UHSEH1PBE) =  -1400.96467494     A.U. after   23 cycles
 SCF Done:  E(UHSEH1PBE) =  -1400.96594936     A.U. after   22 cycles
 SCF Done:  E(UHSEH1PBE) =  -1400.96681733     A.U. after   20 cycles
 SCF Done:  E(UHSEH1PBE) =  -1400.96719216     A.U. after   22 cycles
 SCF Done:  E(UHSEH1PBE) =  -1400.96753592     A.U. after   18 cycles
 SCF Done:  E(UHSEH1PBE) =  -1400.96756570     A.U. after   15 cycles
 SCF Done:  E(UHSEH1PBE) =  -1400.96757828     A.U. after   14 cycles
 Optimization completed.
    -- Stationary point found.
 Normal termination of Gaussian 16 at Thu May 23 19:28:40 2024.

 ----------------------------------------------------------------------
 #P Geom=AllCheck Guess=TCheck SCRF=Check GenChk UHSEH1PBE/6-31+G(2df,p
 ) Freq
 ----------------------------------------------------------------------

 Structure from the checkpoint file:  "V_3_HSE06.chk"
 -----
 Title
 -----
 Charge =  3 Multiplicity = 3

 SCF Done:  E(UHSEH1PBE) =  -1400.96757828     A.U. after    1 cycles

  Exact polarizability:      58.111       0.001      58.107       0.003       0.003      56.211
 Approx polarizability:      76.293      -0.000      76.294       0.011       0.003      72.354

                      1                      2                      3
                      A                      A                      A
 Frequencies --    119.5627               121.1424               150.7582
 Red. masses --      4.9107                 4.9131                 4.4462
 Frc consts  --      0.0414                 0.0425                 0.0595
 IR Inten    --      1.9771                 1.9651                 3.1233

                      4                      5                      6
                      A                      A                      A
 Frequencies --    167.4794               173.1607               173.5604
 Red. masses --      5.3462                 4.5929                 4.5952
 Frc consts  --      0.0884                 0.0811                 0.0816
 IR Inten    --      0.0000                 0.0000                 0.0000

                      7                      8                      9
                      A                      A                      A
 Frequencies --    187.0548               187.4970               188.3375
 Red. masses --      2.7887                 2.8030                 4.7189
 Frc consts  --      0.0575                 0.0581                 0.0986
 IR Inten    --      0.9390                 0.9289                 0.3034

                     10                     11                     12
                      A                      A                      A
 Frequencies --    240.3633               241.1196               264.5657
 Red. masses --      1.3110                 1.3136                 1.2145
 Frc consts  --      0.0446                 0.0450                 0.0501
 IR Inten    --      0.0009                 0.0016                 9.7883

                     13                     14                     15
                      A                      A                      A
 Frequencies --    264.6692               313.7705               375.9734
 Red. masses --      1.2153                 1.0205                 2.5942
 Frc consts  --      0.0502                 0.0592                 0.2161
 IR Inten    --      9.7306                 0.0003                 0.0002

                     16                     17                     18
                      A                      A                      A
 Frequencies --    376.1647               429.7342               441.9854
 Red. masses --      2.5823                 1.7265                 5.9549
 Frc consts  --      0.2153                 0.1879                 0.6854
 IR Inten    --      0.0000                 5.8366                 0.0000

                     19                     20                     21
                      A                      A                      A
 Frequencies --    456.0709               456.2322               458.3417
 Red. masses --      3.7862                 3.7859                 1.4659
 Frc consts  --      0.4640                 0.4643                 0.1814
 IR Inten    --      5.1181                 5.0026                33.2589

                     22                     23                     24
                      A                      A                      A
 Frequencies --    484.1619               484.5954               515.0268
 Red. masses --      1.1403                 1.1403                 1.2023
 Frc consts  --      0.1575                 0.1578                 0.1879
 IR Inten    --      0.0052                 0.0112               366.2692

                     25                     26                     27
                      A                      A                      A
 Frequencies --    515.2723               523.6654               532.3241
 Red. masses --      1.2017                 1.1209                 1.3294
 Frc consts  --      0.1880                 0.1811                 0.2220
 IR Inten    --    366.9427                 0.0741               599.4726

                     28                     29                     30
                      A                      A                      A
 Frequencies --    628.7710               668.2518               668.4842
 Red. masses --      1.1412                 1.1520                 1.1531
 Frc consts  --      0.2658                 0.3031                 0.3036
 IR Inten    --      0.0019                 0.0411                 2.7297

                     31                     32                     33
                      A                      A                      A
 Frequencies --    669.2935               699.2304               699.2901
 Red. masses --      1.2529                 1.3054                 1.3057
 Frc consts  --      0.3307                 0.3760                 0.3762
 IR Inten    --    209.9041               265.7972               266.4302

                     34                     35                     36
                      A                      A                      A
 Frequencies --   1665.3754              1665.4294              1667.5219
 Red. masses --      1.0931                 1.0931                 1.0919
 Frc consts  --      1.7861                 1.7863                 1.7889
 IR Inten    --    246.2549               246.4407                 0.0559

                     37                     38                     39
                      A                      A                      A
 Frequencies --   1667.6158              1668.6615              1681.4543
 Red. masses --      1.0919                 1.0926                 1.0816
 Frc consts  --      1.7890                 1.7925                 1.8017
 IR Inten    --      0.0116               264.8393                 0.0003

                     40                     41                     42
                      A                      A                      A
 Frequencies --   3685.0049              3685.3306              3691.5707
 Red. masses --      1.0432                 1.0432                 1.0441
 Frc consts  --      8.3466                 8.3481                 8.3829
 IR Inten    --      0.5381                 0.1753               651.9299

                     43                     44                     45
                      A                      A                      A
 Frequencies --   3691.9121              3693.1388              3715.6909
 Red. masses --      1.0441                 1.0440                 1.0460
 Frc consts  --      8.3845                 8.3895                 8.5083
 IR Inten    --    651.5075               697.2997                 0.0328

                     46                     47                     48
                      A                      A                      A
 Frequencies --   3764.9061              3765.9935              3767.3189
 Red. masses --      1.0850                 1.0852                 1.0851
 Frc consts  --      9.0611                 9.0682                 9.0735
 IR Inten    --      6.2468               352.6467                28.7569

                     49                     50                     51
                      A                      A                      A
 Frequencies --   3767.6279              3768.1515              3768.4248
 Red. masses --      1.0851                 1.0852                 1.0852
 Frc consts  --      9.0750                 9.0783                 9.0797
 IR Inten    --     11.5042               688.9429               714.9839

 - Thermochemistry -
 -------------------
 Temperature   298.150 Kelvin.  Pressure   1.00000 Atm.
 Atom     1 has atomic number 23 and mass  50.94396

 Molecular mass:   159.00735 amu.
 Principal axes and moments of inertia in atomic units:
                           1         2         3
     Eigenvalues --  1150.290711150.576631171.17715
           X            0.99998   0.00643   0.00035
           Y           -0.00643   0.99998  -0.00025
           Z           -0.00035   0.00025   1.00000
 This molecule is an asymmetric top.
 Rotational symmetry number  1.
 Warning -- assumption of classical behavior for rotation
           may cause significant error
 Rotational temperatures (Kelvin)      0.07530     0.07528     0.07395
 Rotational constants (GHZ):           1.56894     1.56855     1.54096
 Zero-point vibrational energy     404679.0 (Joules/Mol)
                                   96.72059 (Kcal/Mol)
 Warning -- explicit consideration of  27 degrees of freedom as
           vibrations may cause significant error
 Vibrational temperatures:    172.02   174.30   216.91   240.97   249.14
          (Kelvin)            249.71   269.13   269.77   270.98   345.83
                              346.92   380.65   380.80   451.45   540.94
                              541.22   618.29   635.92   656.18   656.42
                              659.45   696.60   697.22   741.01   741.36
                              753.44   765.90   904.66   961.47   961.80
                              962.96  1006.04  1006.12  2396.10  2396.18
                             2399.19  2399.33  2400.83  2419.24  5301.90
                             5302.37  5311.35  5311.84  5313.60  5346.05
                             5416.86  5418.42  5420.33  5420.78  5421.53
                             5421.92

 Zero-point correction=                           0.154134 (Hartree/Particle)
 Thermal correction to Energy=                    0.168961
 Thermal correction to Enthalpy=                  0.169905
 Thermal correction to Gibbs Free Energy=         0.115168
 Sum of electronic and zero-point Energies=          -1400.813444
 Sum of electronic and thermal Energies=             -1400.798617
 Sum of electronic and thermal Enthalpies=           -1400.797673
 Sum of electronic and thermal Free Energies=        -1400.852410

                     E (Thermal)             CV                S
                      KCal/Mol        Cal/Mol-Kelvin    Cal/Mol-Kelvin
 Total                  106.025             54.402            115.204
 Electronic               0.000              0.000              2.183
 Translational            0.889              2.981             41.100
 Rotational               0.889              2.981             28.829
 Vibrational            104.247             48.440             43.092
 Vibration     1          0.609              1.933              3.107
 Vibration     2          0.609              1.932              3.082
 Vibration     3          0.618              1.902              2.663
 Vibration     4          0.624              1.882              2.464
 Vibration     5          0.627              1.876              2.401
 Vibration     6          0.627              1.875              2.397
 Vibration     7          0.632              1.858              2.257
 Vibration     8          0.632              1.857              2.252
 Vibration     9          0.633              1.856              2.244
 Vibration    10          0.657              1.779              1.800
 Vibration    11          0.658              1.777              1.795
 Vibration    12          0.671              1.738              1.631
 Vibration    13          0.671              1.738              1.631
 Vibration    14          0.702              1.647              1.342
 Vibration    15          0.747              1.521              1.055
 Vibration    16          0.747              1.521              1.055
 Vibration    17          0.791              1.405              0.860
 Vibration    18          0.802              1.379              0.820
 Vibration    19          0.814              1.347              0.778
 Vibration    20          0.814              1.347              0.777
 Vibration    21          0.816              1.342              0.771
 Vibration    22          0.840              1.285              0.699
 Vibration    23          0.841              1.284              0.698
 Vibration    24          0.870              1.217              0.622
 Vibration    25          0.870              1.216              0.621
 Vibration    26          0.879              1.198              0.602
 Vibration    27          0.887              1.178              0.582

 Normal termination of Gaussian 16 at Thu May 23 19:31:12 2024.
 Gaussian 16:  ES64L-G16RevC.02  7-Dec-2021

 ----------------------------------------------------------------------
 #p HSEH1PBE scf=(maxcycles=500,xqc,maxconventional=50) scrf=(cpcm,solv
 ent=water) geom=allcheck guess=read chkbasis
 ----------------------------------------------------------------------

 Structure from the checkpoint file:  "V_3_HSE06.chk_solvated"
 -----
 Title
 -----
 Charge =  3 Multiplicity = 3

                         Standard orientation:
 ---------------------------------------------------------------------
 Center     Atomic      Atomic             Coordinates (Angstroms)
 Number     Number       Type             X           Y           Z
 ---------------------------------------------------------------------
      1         23           0       -0.000089   -0.000116    0.000001
      2          8           0       -1.548679    0.611642   -1.164875
      3          1           0       -1.961342    1.492583   -1.165644
      4          8           0       -1.309392   -1.034778    1.159552
      5          1           0       -1.083487   -1.679680    1.852056
      6          8           0        0.247029   -1.651221   -1.158275
      7          1           0        0.922169   -1.777620   -1.847258
      8          8           0        1.548503   -0.611667    1.165052
      9          1           0        1.992167   -0.090619    1.856537
     10          8           0        1.309627    1.034705   -1.159174
     11          1           0        1.083974    1.678046   -1.853247
     12          8           0       -0.246903    1.651535    1.157714
     13          1           0       -0.921183    1.778244    1.847449
     14          1           0        0.308681    2.450045    1.155317
     15          1           0       -2.278653   -0.951938    1.155623
     16          1           0       -1.993202    0.090513   -1.855733
     17          1           0        2.279033    0.953163   -1.153420
     18          1           0       -0.309115   -2.449370   -1.157517
     19          1           0        1.961531   -1.492427    1.165852
 ---------------------------------------------------------------------

 SCF Done:  E(UHSEH1PBE) =  -1401.60699661     A.U. after   16 cycles

 The electronic state is 3-A.
 Alpha  occ. eigenvalues -- -197.29492 -22.54187 -19.32845 -19.32844 -19.32841
 Alpha  occ. eigenvalues --  -19.32839 -19.32836 -19.32834 -19.01082 -19.00339
 Alpha  occ. eigenvalues --  -19.00337  -2.85344  -1.86684  -1.86675  -1.86674
 Alpha  occ. eigenvalues --   -1.14340  -1.13285  -1.13281  -1.13278  -1.13274
 Alpha  occ. eigenvalues --   -1.13246  -0.64316  -0.64308  -0.63772  -0.63766
 Alpha  occ. eigenvalues --   -0.63528  -0.63306  -0.59052  -0.56546  -0.56540
 Alpha  occ. eigenvalues --   -0.53696  -0.53691  -0.53685  -0.45293  -0.44522
 Alpha  occ. eigenvalues --   -0.44516  -0.43280  -0.42973  -0.42966  -0.35584
 Alpha  occ. eigenvalues --   -0.35580
 Alpha virt. eigenvalues --   -0.21771  -0.14124  -0.14122  -0.06166  -0.02134
 Alpha virt. eigenvalues --   -0.02130  -0.02021   0.03030   0.03969   0.03969
 Alpha virt. eigenvalues --    0.06648   0.06654   0.07340   0.07340   0.07805

  Beta  occ. eigenvalues -- -197.29482 -22.51431 -19.32845 -19.32844 -19.32842
  Beta  occ. eigenvalues --  -19.32839 -19.32836 -19.32834 -18.99288 -18.97694
  Beta  occ. eigenvalues --  -18.97690  -2.76688  -1.79811  -1.76147  -1.76138
  Beta  occ. eigenvalues --   -1.14280  -1.13240  -1.13233  -1.13212  -1.13205
  Beta  occ. eigenvalues --   -1.13191  -0.64059  -0.64051  -0.63706  -0.63701
  Beta  occ. eigenvalues --   -0.63475  -0.63246  -0.58765  -0.56176  -0.56170
  Beta  occ. eigenvalues --   -0.53723  -0.53675  -0.53668  -0.44869  -0.43120
  Beta  occ. eigenvalues --   -0.42988  -0.42982  -0.42776  -0.42769
  Beta virt. eigenvalues --   -0.17836  -0.14102  -0.14100  -0.10825  -0.10825
  Beta virt. eigenvalues --   -0.06018  -0.02059  -0.02054  -0.01965   0.03100
  Beta virt. eigenvalues --    0.04159   0.04159   0.06803   0.06809   0.07564

 Mulliken charges and spin densities:
               1          2
     1  V    1.836660   2.037328
     2  O   -0.712789  -0.008892
     3  H    0.452370   0.001799
     4  O   -0.712787  -0.008923
     5  H    0.454454   0.000893
     6  O   -0.712964  -0.008975
     7  H    0.454451   0.000894
     8  O   -0.712932  -0.008878
     9  H    0.454455   0.000887
    10  O   -0.713061  -0.008862
    11  H    0.454505   0.000883
    12  O   -0.713075  -0.008934
    13  H    0.454470   0.000888
    14  H    0.452394   0.001798
    15  H    0.452279   0.001805
    16  H    0.454441   0.000890
    17  H    0.452322   0.001799
    18  H    0.452411   0.001802
    19  H    0.452396   0.001798
 Sum of Mulliken charges =   3.00000   2.00000

 Dipole moment (field-independent basis, Debye):
    X=             -0.0008    Y=             -0.0007    Z=              0.0000  Tot=              0.0011
 Quadrupole moment (field-independent basis, Debye-Ang):
   XX=             -6.3424   YY=             -6.3434   ZZ=            -10.0202
   XY=              0.0041   XZ=              0.0102   YZ=             -0.0061

 Normal termination of Gaussian 16 at Thu May 23 19:32:41 2024.
