 Gaussian 16, Revision C.02,

 ----------------------------------------------------------------------
 #p BLYP empiricaldispersion=gd3 6-31+G(2df,p) opt=(cartesian,calcall,m
 axcycles=500) freq scf=(maxcycles=500,xqc,maxconventional=50)
 ----------------------------------------------------------------------

 -----
 Title
 -----
 Symbolic Z-matrix:
 Charge =  3 Multiplicity = 3

 SCF Done:  E(UB-LYP) =  -1401.29842460     A.U. after   18 cycles
 SCF Done:  E(UB-LYP) =  -1401.33053025     A.U. after   16 cycles
 SCF Done:  E(UB-LYP) =  -1401.38438353     A.U. after   15 cycles
 SCF Done:  E(UB-LYP) =  -1401.43547360     A.U. after   18 cycles
 SCF Done:  E(UB-LYP) =  -1401.46844605     A.U. after   18 cycles
 SCF Done:  E(UB-LYP) =  -1401.50349166     A.U. after   20 cycles
 SCF Done:  E(UB-LYP) =  -1401.52878757     A.U. after   17 cycles
 SCF Done:  E(UB-LYP) =  -1401.54170106     A.U. after   18 cycles
 SCF Done:  E(UB-LYP) =  -1401.54817489     A.U. after   17 cycles
 SCF Done:  E(UB-LYP) =  -1401.55107737     A.U. after   16 cycles
 SCF Done:  E(UB-LYP) =  -1401.55855312     A.U. after   11 cycles
 SCF Done:  E(UB-LYP) =  -1401.55872085     A.U. after   15 cycles
 SCF Done:  E(UB-LYP) =  -1401.55895123     A.U. after   13 cycles
 SCF Done:  E(UB-LYP) =  -1401.55902979     A.U. after   14 cycles
 SCF Done:  E(UB-LYP) =  -1401.55907599     A.U. after   13 cycles
 SCF Done:  E(UB-LYP) =  -1401.55906789     A.U. after   11 cycles
 SCF Done:  E(UB-LYP) =  -1401.55907476     A.U. after   11 cycles
 SCF Done:  E(UB-LYP) =  -1401.55906316     A.U. after    6 cycles
 Optimization completed.
    -- Stationary point found.
 Normal termination of Gaussian 16 at Thu May 23 18:57:00 2024.

 ----------------------------------------------------------------------
 #P Geom=AllCheck Guess=TCheck SCRF=Check GenChk UBLYP/6-31+G(2df,p) Fr
 eq
 ----------------------------------------------------------------------

 Structure from the checkpoint file:  "V_3_BLYP.chk"
 -----
 Title
 -----
 Charge =  3 Multiplicity = 3

 SCF Done:  E(UB-LYP) =  -1401.55906316     A.U. after    1 cycles

  Exact polarizability:      67.868      -0.004      67.859       0.015      -0.004      65.469
 Approx polarizability:     107.732      -0.006     107.714       0.038      -0.004     101.266

                      1                      2                      3
                      A                      A                      A
 Frequencies --    115.0917               116.2211               143.5604
 Red. masses --      4.8221                 4.8222                 4.4157
 Frc consts  --      0.0376                 0.0384                 0.0536
 IR Inten    --      1.5039                 1.4964                 2.4799

                      4                      5                      6
                      A                      A                      A
 Frequencies --    162.7030               166.4114               166.8440
 Red. masses --      5.2830                 4.5646                 4.5743
 Frc consts  --      0.0824                 0.0745                 0.0750
 IR Inten    --      0.0018                 0.0012                 0.0022

                      7                      8                      9
                      A                      A                      A
 Frequencies --    175.6948               176.7855               181.9852
 Red. masses --      2.8100                 2.9205                 4.6237
 Frc consts  --      0.0511                 0.0538                 0.0902
 IR Inten    --      1.1684                 0.9696                 0.7991

                     10                     11                     12
                      A                      A                      A
 Frequencies --    231.7850               234.9147               259.9627
 Red. masses --      1.3210                 1.3373                 1.2161
 Frc consts  --      0.0418                 0.0435                 0.0484
 IR Inten    --      0.0318                 0.0534                12.1892

                     13                     14                     15
                      A                      A                      A
 Frequencies --    263.5734               303.6664               356.5574
 Red. masses --      1.1973                 1.0243                 2.5678
 Frc consts  --      0.0490                 0.0557                 0.1923
 IR Inten    --     11.8915                 0.1427                 0.0015

                     16                     17                     18
                      A                      A                      A
 Frequencies --    357.8615               407.3805               412.9842
 Red. masses --      2.5092                 2.1229                 5.9977
 Frc consts  --      0.1893                 0.2076                 0.6027
 IR Inten    --      0.0044                12.3140                 0.0004

                     19                     20                     21
                      A                      A                      A
 Frequencies --    430.4239               430.9534               436.1203
 Red. masses --      3.7194                 3.7661                 1.2497
 Frc consts  --      0.4060                 0.4121                 0.1401
 IR Inten    --      6.4919                 5.3546                34.4655

                     22                     23                     24
                      A                      A                      A
 Frequencies --    458.7012               460.1166               482.6427
 Red. masses --      1.1391                 1.1398                 1.2276
 Frc consts  --      0.1412                 0.1422                 0.1685
 IR Inten    --      1.0797                 0.6412               345.1909

                     25                     26                     27
                      A                      A                      A
 Frequencies --    484.3539               496.6002               500.4662
 Red. masses --      1.2192                 1.1201                 1.3731
 Frc consts  --      0.1685                 0.1628                 0.2026
 IR Inten    --    345.6790                 4.2726               564.9508

                     28                     29                     30
                      A                      A                      A
 Frequencies --    611.9002               649.3804               651.0488
 Red. masses --      1.1430                 1.1641                 1.1743
 Frc consts  --      0.2522                 0.2892                 0.2933
 IR Inten    --      0.0864                18.1977                36.8495

                     31                     32                     33
                      A                      A                      A
 Frequencies --    652.3734               678.9981               680.4145
 Red. masses --      1.2096                 1.2906                 1.2872
 Frc consts  --      0.3033                 0.3506                 0.3511
 IR Inten    --    103.3069               209.2668               208.2032

                     34                     35                     36
                      A                      A                      A
 Frequencies --   1617.3154              1617.5898              1620.3695
 Red. masses --      1.0922                 1.0922                 1.0901
 Frc consts  --      1.6832                 1.6838                 1.6864
 IR Inten    --    204.7531               205.0261                15.7960

                     37                     38                     39
                      A                      A                      A
 Frequencies --   1620.6651              1621.1517              1635.4442
 Red. masses --      1.0901                 1.0915                 1.0812
 Frc consts  --      1.6869                 1.6902                 1.7039
 IR Inten    --      2.6673               203.5312                 0.0198

                     40                     41                     42
                      A                      A                      A
 Frequencies --   3504.9770              3507.1114              3512.9301
 Red. masses --      1.0427                 1.0427                 1.0435
 Frc consts  --      7.5469                 7.5563                 7.5875
 IR Inten    --     24.9934                26.3827               638.8086

                     43                     44                     45
                      A                      A                      A
 Frequencies --   3513.7409              3517.1480              3537.7067
 Red. masses --      1.0436                 1.0435                 1.0453
 Frc consts  --      7.5912                 7.6057                 7.7081
 IR Inten    --    666.3598               653.3086                 4.9797

                     46                     47                     48
                      A                      A                      A
 Frequencies --   3583.8122              3586.0030              3586.6267
 Red. masses --      1.0849                 1.0849                 1.0849
 Frc consts  --      8.2098                 8.2196                 8.2226
 IR Inten    --    165.7244               127.6652               239.6335

                     49                     50                     51
                      A                      A                      A
 Frequencies --   3588.0292              3588.4580              3591.9820
 Red. masses --      1.0849                 1.0849                 1.0849
 Frc consts  --      8.2291                 8.2310                 8.2470
 IR Inten    --    342.1537               357.2043               320.6323

 - Thermochemistry -
 -------------------
 Temperature   298.150 Kelvin.  Pressure   1.00000 Atm.
 Atom     1 has atomic number 23 and mass  50.94396

 Molecular mass:   159.00735 amu.
 Principal axes and moments of inertia in atomic units:
                           1         2         3
     Eigenvalues --  1186.370741186.508261207.63736
           X            0.99584   0.09110   0.00029
           Y           -0.09110   0.99584  -0.00005
           Z           -0.00029   0.00002   1.00000
 This molecule is an asymmetric top.
 Rotational symmetry number  1.
 Warning -- assumption of classical behavior for rotation
           may cause significant error
 Rotational temperatures (Kelvin)      0.07301     0.07300     0.07172
 Rotational constants (GHZ):           1.52123     1.52105     1.49444
 Zero-point vibrational energy     386929.4 (Joules/Mol)
                                   92.47834 (Kcal/Mol)
 Warning -- explicit consideration of  28 degrees of freedom as
           vibrations may cause significant error
 Vibrational temperatures:    165.59   167.22   206.55   234.09   239.43
          (Kelvin)            240.05   252.79   254.35   261.84   333.49
                              337.99   374.03   379.22   436.91   513.01
                              514.88   586.13   594.19   619.28   620.05
                              627.48   659.97   662.01   694.42   696.88
                              714.50   720.06   880.39   934.31   936.71
                              938.62   976.93   978.96  2326.96  2327.35
                             2331.35  2331.78  2332.48  2353.04  5042.88
                             5045.95  5054.32  5055.49  5060.39  5089.97
                             5156.31  5159.46  5160.36  5162.37  5162.99
                             5168.06

 Zero-point correction=                           0.147374 (Hartree/Particle)
 Thermal correction to Energy=                    0.162680
 Thermal correction to Enthalpy=                  0.163624
 Thermal correction to Gibbs Free Energy=         0.107848
 Sum of electronic and zero-point Energies=          -1401.411690
 Sum of electronic and thermal Energies=             -1401.396383
 Sum of electronic and thermal Enthalpies=           -1401.395439
 Sum of electronic and thermal Free Energies=        -1401.451215

                     E (Thermal)             CV                S
                      KCal/Mol        Cal/Mol-Kelvin    Cal/Mol-Kelvin
 Total                  102.083             55.528            117.391
 Electronic               0.000              0.000              2.183
 Translational            0.889              2.981             41.100
 Rotational               0.889              2.981             28.921
 Vibrational            100.306             49.566             45.187
 Vibration     1          0.608              1.937              3.181
 Vibration     2          0.608              1.936              3.162
 Vibration     3          0.616              1.910              2.756
 Vibration     4          0.623              1.888              2.518
 Vibration     5          0.624              1.884              2.476
 Vibration     6          0.624              1.883              2.471
 Vibration     7          0.628              1.872              2.374
 Vibration     8          0.628              1.871              2.362
 Vibration     9          0.630              1.864              2.308
 Vibration    10          0.653              1.792              1.865
 Vibration    11          0.655              1.787              1.841
 Vibration    12          0.668              1.746              1.662
 Vibration    13          0.670              1.740              1.638
 Vibration    14          0.695              1.667              1.397
 Vibration    15          0.732              1.562              1.137
 Vibration    16          0.733              1.559              1.131
 Vibration    17          0.772              1.454              0.936
 Vibration    18          0.777              1.442              0.916
 Vibration    19          0.792              1.404              0.857
 Vibration    20          0.792              1.403              0.856
 Vibration    21          0.797              1.391              0.839
 Vibration    22          0.817              1.342              0.770
 Vibration    23          0.818              1.339              0.766
 Vibration    24          0.839              1.289              0.703
 Vibration    25          0.840              1.285              0.698
 Vibration    26          0.852              1.258              0.667
 Vibration    27          0.856              1.249              0.657
 Vibration    28          0.971              1.007              0.430

 Normal termination of Gaussian 16 at Thu May 23 18:58:32 2024.
 Gaussian 16:  ES64L-G16RevC.02  7-Dec-2021

 ----------------------------------------------------------------------
 #p BLYP empiricaldispersion=gd3 scf=(maxcycles=500,xqc,maxconventional
 =50) scrf=(cpcm,solvent=water) geom=allcheck guess=read chkbasis
 ----------------------------------------------------------------------

 Structure from the checkpoint file:  "V_3_BLYP.chk_solvated"
 -----
 Title
 -----
 Charge =  3 Multiplicity = 3

                         Standard orientation:
 ---------------------------------------------------------------------
 Center     Atomic      Atomic             Coordinates (Angstroms)
 Number     Number       Type             X           Y           Z
 ---------------------------------------------------------------------
      1         23           0       -0.000652    0.000009   -0.000109
      2          8           0        0.526039   -1.610842   -1.177773
      3          1           0        0.100576   -2.499850   -1.185374
      4          8           0        1.655202   -0.350629    1.181163
      5          1           0        2.016126    0.247544    1.876913
      6          8           0        1.134729    1.258030   -1.178260
      7          1           0        0.799770    1.872235   -1.873396
      8          8           0       -0.525127    1.611184    1.177919
      9          1           0       -1.228948    1.628538    1.868075
     10          8           0       -1.655661    0.351121   -1.181470
     11          1           0       -2.024476   -0.252985   -1.868210
     12          8           0       -1.133726   -1.258838    1.178659
     13          1           0       -0.796160   -1.875273    1.870102
     14          1           0       -2.116847   -1.331480    1.188055
     15          1           0        2.212876   -1.163637    1.187108
     16          1           0        1.225657   -1.624714   -1.871747
     17          1           0       -2.207010    1.168218   -1.195079
     18          1           0        2.118082    1.332046   -1.181991
     19          1           0       -0.096283    2.498943    1.186153
 ---------------------------------------------------------------------

 SCF Done:  E(UB-LYP) =  -1402.19509045     A.U. after   12 cycles

 The electronic state is 3-A.
 Alpha  occ. eigenvalues -- -195.90971 -22.00516 -18.91717 -18.91715 -18.91714
 Alpha  occ. eigenvalues --  -18.91708 -18.91707 -18.91701 -18.59604 -18.58762
 Alpha  occ. eigenvalues --  -18.58759  -2.64237  -1.71965  -1.71155  -1.71152
 Alpha  occ. eigenvalues --   -1.02702  -1.01862  -1.01851  -1.01833  -1.01826
 Alpha  occ. eigenvalues --   -1.01813  -0.57503  -0.57497  -0.57120  -0.57111
 Alpha  occ. eigenvalues --   -0.56893  -0.56677  -0.51988  -0.49908  -0.49902
 Alpha  occ. eigenvalues --   -0.47396  -0.47387  -0.47374  -0.39067  -0.37519
 Alpha  occ. eigenvalues --   -0.37506  -0.37064  -0.36749  -0.36744  -0.27402
 Alpha  occ. eigenvalues --   -0.27397
 Alpha virt. eigenvalues --   -0.24778  -0.17926  -0.17921  -0.08322  -0.04299
 Alpha virt. eigenvalues --   -0.04297  -0.04194   0.00611   0.00614   0.02109
 Alpha virt. eigenvalues --    0.03984   0.03992   0.04513   0.04515   0.05151

  Beta  occ. eigenvalues -- -195.90954 -21.98206 -18.91709 -18.91707 -18.91707
  Beta  occ. eigenvalues --  -18.91700 -18.91699 -18.91693 -18.58222 -18.56782
  Beta  occ. eigenvalues --  -18.56777  -2.57289  -1.66779  -1.63613  -1.63602
  Beta  occ. eigenvalues --   -1.02652  -1.01806  -1.01797  -1.01788  -1.01786
  Beta  occ. eigenvalues --   -1.01771  -0.57396  -0.57391  -0.57078  -0.57069
  Beta  occ. eigenvalues --   -0.56862  -0.56635  -0.51754  -0.49573  -0.49567
  Beta  occ. eigenvalues --   -0.47359  -0.47341  -0.47335  -0.38678  -0.36982
  Beta  occ. eigenvalues --   -0.36865  -0.36856  -0.36646  -0.36642
  Beta virt. eigenvalues --   -0.21378  -0.18469  -0.18466  -0.15044  -0.15040
  Beta virt. eigenvalues --   -0.08193  -0.04249  -0.04247  -0.04154   0.00747
  Beta virt. eigenvalues --    0.00750   0.02162   0.04074   0.04081   0.04653

 Mulliken charges and spin densities:
               1          2
     1  V    1.638768   2.014921
     2  O   -0.635783  -0.005725
     3  H    0.430162   0.002174
     4  O   -0.635705  -0.005694
     5  H    0.432055   0.001133
     6  O   -0.635670  -0.005653
     7  H    0.432113   0.001143
     8  O   -0.635114  -0.005868
     9  H    0.431975   0.001171
    10  O   -0.634392  -0.006107
    11  H    0.431978   0.001199
    12  O   -0.635294  -0.005852
    13  H    0.431925   0.001167
    14  H    0.430259   0.002173
    15  H    0.430244   0.002161
    16  H    0.431902   0.001140
    17  H    0.430110   0.002182
    18  H    0.430299   0.002159
    19  H    0.430169   0.002176
 Sum of Mulliken charges =   3.00000   2.00000

 Dipole moment (field-independent basis, Debye):
    X=             -0.0088    Y=             -0.0000    Z=             -0.0006  Tot=              0.0088
 Quadrupole moment (field-independent basis, Debye-Ang):
   XX=             -5.9791   YY=             -5.9895   ZZ=             -9.9441
   XY=              0.0117   XZ=              0.0152   YZ=             -0.0042

 Normal termination of Gaussian 16 at Thu May 23 18:59:19 2024.
