 Gaussian 16, Revision C.02,

 ----------------------------------------------------------------------
 #p PBE1PBE empiricaldispersion=gd3 6-31+G(2df,p) opt=(cartesian,calcal
 l,maxcycles=500) freq scf=(maxcycles=500,xqc,maxconventional=50)
 ----------------------------------------------------------------------

 -----
 Title
 -----
 Symbolic Z-matrix:
 Charge =  3 Multiplicity = 3

 SCF Done:  E(UPBE1PBE) =  -1400.68940498     A.U. after   22 cycles
 SCF Done:  E(UPBE1PBE) =  -1400.71777762     A.U. after   21 cycles
 SCF Done:  E(UPBE1PBE) =  -1400.76572977     A.U. after   22 cycles
 SCF Done:  E(UPBE1PBE) =  -1400.81819020     A.U. after   23 cycles
 SCF Done:  E(UPBE1PBE) =  -1400.83060108     A.U. after   23 cycles
 SCF Done:  E(UPBE1PBE) =  -1400.86550299     A.U. after   23 cycles
 SCF Done:  E(UPBE1PBE) =  -1400.89613283     A.U. after   24 cycles
 SCF Done:  E(UPBE1PBE) =  -1400.90689792     A.U. after   23 cycles
 SCF Done:  E(UPBE1PBE) =  -1400.91164047     A.U. after   22 cycles
 SCF Done:  E(UPBE1PBE) =  -1400.91390892     A.U. after   23 cycles
 SCF Done:  E(UPBE1PBE) =  -1400.91886555     A.U. after   23 cycles
 SCF Done:  E(UPBE1PBE) =  -1400.91887296     A.U. after   15 cycles
 SCF Done:  E(UPBE1PBE) =  -1400.91892535     A.U. after   23 cycles
 SCF Done:  E(UPBE1PBE) =  -1400.91893968     A.U. after   20 cycles
 SCF Done:  E(UPBE1PBE) =  -1400.91895760     A.U. after   22 cycles
 SCF Done:  E(UPBE1PBE) =  -1400.91895415     A.U. after   14 cycles
 SCF Done:  E(UPBE1PBE) =  -1400.91895609     A.U. after   14 cycles
 SCF Done:  E(UPBE1PBE) =  -1400.91895735     A.U. after    2 cycles
 Optimization completed.
    -- Stationary point found.
 Normal termination of Gaussian 16 at Thu May 23 19:22:01 2024.

 ----------------------------------------------------------------------
 #P Geom=AllCheck Guess=TCheck SCRF=Check GenChk UPBE1PBE/6-31+G(2df,p)
  Freq
 ----------------------------------------------------------------------

 Structure from the checkpoint file:  "V_3_PBE0.chk"
 -----
 Title
 -----
 Charge =  3 Multiplicity = 3

 SCF Done:  E(UPBE1PBE) =  -1400.91895735     A.U. after    1 cycles

  Exact polarizability:      57.914       0.002      57.913       0.005      -0.003      56.040
 Approx polarizability:      72.076       0.004      72.074       0.008      -0.008      68.441

                      1                      2                      3
                      A                      A                      A
 Frequencies --    120.7449               120.8736               151.5915
 Red. masses --      4.8843                 4.8986                 4.4819
 Frc consts  --      0.0420                 0.0422                 0.0607
 IR Inten    --      1.9877                 1.9985                 3.2160

                      4                      5                      6
                      A                      A                      A
 Frequencies --    167.4479               172.9807               173.5864
 Red. masses --      5.3238                 4.5864                 4.5846
 Frc consts  --      0.0879                 0.0809                 0.0814
 IR Inten    --      0.0001                 0.0006                 0.0005

                      7                      8                      9
                      A                      A                      A
 Frequencies --    186.5370               187.1429               187.5479
 Red. masses --      4.1261                 3.0751                 2.9469
 Frc consts  --      0.0846                 0.0635                 0.0611
 IR Inten    --      0.4804                 0.7777                 0.8443

                     10                     11                     12
                      A                      A                      A
 Frequencies --    241.4279               244.7007               266.0967
 Red. masses --      1.3177                 1.3307                 1.2058
 Frc consts  --      0.0453                 0.0469                 0.0503
 IR Inten    --      0.0011                 0.1489                 9.6303

                     13                     14                     15
                      A                      A                      A
 Frequencies --    269.0258               317.1216               376.3433
 Red. masses --      1.1929                 1.0208                 2.5651
 Frc consts  --      0.0509                 0.0605                 0.2141
 IR Inten    --      9.5300                 0.0145                 0.0002

                     16                     17                     18
                      A                      A                      A
 Frequencies --    377.1117               430.9994               443.0732
 Red. masses --      2.5142                 1.8799                 5.9503
 Frc consts  --      0.2107                 0.2057                 0.6882
 IR Inten    --      0.0072                 6.4887                 0.0015

                     19                     20                     21
                      A                      A                      A
 Frequencies --    456.0527               456.3655               459.2248
 Red. masses --      3.7582                 3.8079                 1.3769
 Frc consts  --      0.4605                 0.4673                 0.1711
 IR Inten    --      5.0698                 4.4780                32.1736

                     22                     23                     24
                      A                      A                      A
 Frequencies --    484.2753               485.4581               515.2049
 Red. masses --      1.1396                 1.1406                 1.2060
 Frc consts  --      0.1575                 0.1584                 0.1886
 IR Inten    --      0.0090                 0.6413               370.6701

                     25                     26                     27
                      A                      A                      A
 Frequencies --    516.1434               523.9991               533.1419
 Red. masses --      1.2020                 1.1227                 1.3271
 Frc consts  --      0.1887                 0.1816                 0.2222
 IR Inten    --    367.2027                 7.4821               600.9282

                     28                     29                     30
                      A                      A                      A
 Frequencies --    632.7661               671.6862               672.0703
 Red. masses --      1.1433                 1.1553                 1.1961
 Frc consts  --      0.2697                 0.3071                 0.3183
 IR Inten    --      0.0866                 3.3132                93.5712

                     31                     32                     33
                      A                      A                      A
 Frequencies --    673.4453               702.1945               703.2088
 Red. masses --      1.2045                 1.3039                 1.3012
 Frc consts  --      0.3219                 0.3788                 0.3791
 IR Inten    --    112.4124               266.7210               264.9558

                     34                     35                     36
                      A                      A                      A
 Frequencies --   1666.5483              1666.7411              1668.6060
 Red. masses --      1.0929                 1.0929                 1.0917
 Frc consts  --      1.7884                 1.7888                 1.7908
 IR Inten    --    245.3925               244.1089                 0.0478

                     37                     38                     39
                      A                      A                      A
 Frequencies --   1668.8173              1669.8248              1682.7341
 Red. masses --      1.0917                 1.0925                 1.0816
 Frc consts  --      1.7914                 1.7947                 1.8044
 IR Inten    --      6.4168               258.0648                 0.0198

                     40                     41                     42
                      A                      A                      A
 Frequencies --   3687.7600              3690.0885              3695.0157
 Red. masses --      1.0433                 1.0433                 1.0440
 Frc consts  --      8.3599                 8.3699                 8.3984
 IR Inten    --     53.7063                 0.6465               601.9717

                     43                     44                     45
                      A                      A                      A
 Frequencies --   3696.6838              3697.7407              3719.8263
 Red. masses --      1.0441                 1.0440                 1.0460
 Frc consts  --      8.4065                 8.4108                 8.5278
 IR Inten    --    652.2773               689.4448                 1.8264

                     46                     47                     48
                      A                      A                      A
 Frequencies --   3766.9087              3770.3172              3771.3668
 Red. masses --      1.0850                 1.0850                 1.0850
 Frc consts  --      9.0705                 9.0869                 9.0926
 IR Inten    --    199.3834               154.1889               231.8331

                     49                     50                     51
                      A                      A                      A
 Frequencies --   3772.3987              3772.7609              3773.1578
 Red. masses --      1.0850                 1.0850                 1.0851
 Frc consts  --      9.0970                 9.0994                 9.1015
 IR Inten    --     10.0915               490.5371               717.3128

 - Thermochemistry -
 -------------------
 Temperature   298.150 Kelvin.  Pressure   1.00000 Atm.
 Atom     1 has atomic number 23 and mass  50.94396

 Molecular mass:   159.00735 amu.
 Principal axes and moments of inertia in atomic units:
                           1         2         3
     Eigenvalues --  1149.691201149.855721170.24572
           X            0.99989  -0.01499   0.00008
           Y            0.01499   0.99989   0.00007
           Z           -0.00008  -0.00007   1.00000
 This molecule is an asymmetric top.
 Rotational symmetry number  1.
 Warning -- assumption of classical behavior for rotation
           may cause significant error
 Rotational temperatures (Kelvin)      0.07534     0.07533     0.07401
 Rotational constants (GHZ):           1.56976     1.56954     1.54219
 Zero-point vibrational energy     405276.2 (Joules/Mol)
                                   96.86333 (Kcal/Mol)
 Warning -- explicit consideration of  27 degrees of freedom as
           vibrations may cause significant error
 Vibrational temperatures:    173.72   173.91   218.11   240.92   248.88
          (Kelvin)            249.75   268.39   269.26   269.84   347.36
                              352.07   382.85   387.07   456.27   541.47
                              542.58   620.11   637.48   656.16   656.61
                              660.72   696.76   698.47   741.26   742.62
                              753.92   767.07   910.41   966.41   966.96
                              968.94  1010.30  1011.76  2397.79  2398.07
                             2400.75  2401.06  2402.51  2421.08  5305.86
                             5309.21  5316.30  5318.70  5320.22  5352.00
                             5419.74  5424.65  5426.16  5427.64  5428.16
                             5428.73

 Zero-point correction=                           0.154362 (Hartree/Particle)
 Thermal correction to Energy=                    0.169153
 Thermal correction to Enthalpy=                  0.170097
 Thermal correction to Gibbs Free Energy=         0.115432
 Sum of electronic and zero-point Energies=          -1400.764596
 Sum of electronic and thermal Energies=             -1400.749804
 Sum of electronic and thermal Enthalpies=           -1400.748860
 Sum of electronic and thermal Free Energies=        -1400.803525

                     E (Thermal)             CV                S
                      KCal/Mol        Cal/Mol-Kelvin    Cal/Mol-Kelvin
 Total                  106.145             54.316            115.053
 Electronic               0.000              0.000              2.183
 Translational            0.889              2.981             41.100
 Rotational               0.889              2.981             28.827
 Vibrational            104.368             48.355             42.943
 Vibration     1          0.609              1.932              3.088
 Vibration     2          0.609              1.932              3.086
 Vibration     3          0.619              1.901              2.652
 Vibration     4          0.624              1.883              2.464
 Vibration     5          0.626              1.876              2.403
 Vibration     6          0.627              1.875              2.396
 Vibration     7          0.632              1.858              2.262
 Vibration     8          0.632              1.857              2.256
 Vibration     9          0.632              1.857              2.252
 Vibration    10          0.658              1.777              1.792
 Vibration    11          0.660              1.772              1.768
 Vibration    12          0.672              1.735              1.621
 Vibration    13          0.673              1.730              1.602
 Vibration    14          0.704              1.641              1.325
 Vibration    15          0.747              1.521              1.054
 Vibration    16          0.748              1.519              1.051
 Vibration    17          0.792              1.403              0.855
 Vibration    18          0.803              1.376              0.817
 Vibration    19          0.814              1.348              0.778
 Vibration    20          0.815              1.347              0.777
 Vibration    21          0.817              1.340              0.768
 Vibration    22          0.840              1.285              0.699
 Vibration    23          0.842              1.282              0.695
 Vibration    24          0.870              1.216              0.621
 Vibration    25          0.871              1.214              0.619
 Vibration    26          0.879              1.197              0.601
 Vibration    27          0.888              1.177              0.580

 Normal termination of Gaussian 16 at Thu May 23 19:23:57 2024.
 Gaussian 16:  ES64L-G16RevC.02  7-Dec-2021

 ----------------------------------------------------------------------
 #p PBE1PBE empiricaldispersion=gd3 scf=(maxcycles=500,xqc,maxconventio
 nal=50) scrf=(cpcm,solvent=water) geom=allcheck guess=read chkbasis
 ----------------------------------------------------------------------

 Structure from the checkpoint file:  "V_3_PBE0.chk_solvated"
 -----
 Title
 -----
 Charge =  3 Multiplicity = 3

                         Standard orientation:
 ---------------------------------------------------------------------
 Center     Atomic      Atomic             Coordinates (Angstroms)
 Number     Number       Type             X           Y           Z
 ---------------------------------------------------------------------
      1         23           0       -0.000066   -0.000099    0.000087
      2          8           0        1.393311   -0.920570   -1.156666
      3          1           0        1.618328   -1.867060   -1.152053
      4          8           0        1.489000    0.744803    1.163766
      5          1           0        1.397881    1.421652    1.856709
      6          8           0        0.104771    1.663208   -1.161220
      7          1           0       -0.524197    1.923956   -1.856174
      8          8           0       -1.393645    0.920834    1.156177
      9          1           0       -1.938020    0.505441    1.847301
     10          8           0       -1.489051   -0.744959   -1.163706
     11          1           0       -1.397292   -1.421782   -1.857275
     12          8           0       -0.104314   -1.663185    1.161523
     13          1           0        0.526019   -1.924598    1.855021
     14          1           0       -0.812288   -2.330405    1.157703
     15          1           0        2.421207    0.466533    1.161963
     16          1           0        1.936289   -0.504751   -1.848700
     17          1           0       -2.421491   -0.466658   -1.161855
     18          1           0        0.811889    2.331300   -1.155521
     19          1           0       -1.617384    1.867596    1.151881
 ---------------------------------------------------------------------

 SCF Done:  E(UPBE1PBE) =  -1401.55864021     A.U. after   17 cycles

 The electronic state is 3-A.
 Alpha  occ. eigenvalues -- -197.30550 -22.55782 -19.34232 -19.34229 -19.34227
 Alpha  occ. eigenvalues --  -19.34225 -19.34223 -19.34223 -19.03147 -19.02414
 Alpha  occ. eigenvalues --  -19.02410  -2.86914  -1.88328  -1.88324  -1.88323
 Alpha  occ. eigenvalues --   -1.15967  -1.14910  -1.14907  -1.14905  -1.14898
 Alpha  occ. eigenvalues --   -1.14871  -0.65809  -0.65806  -0.65264  -0.65260
 Alpha  occ. eigenvalues --   -0.65023  -0.64806  -0.60582  -0.58089  -0.58085
 Alpha  occ. eigenvalues --   -0.55187  -0.55184  -0.55182  -0.46780  -0.46058
 Alpha  occ. eigenvalues --   -0.46048  -0.44767  -0.44463  -0.44458  -0.37168
 Alpha  occ. eigenvalues --   -0.37164
 Alpha virt. eigenvalues --   -0.20291  -0.12685  -0.12678  -0.04926  -0.00982
 Alpha virt. eigenvalues --   -0.00976  -0.00875   0.03425   0.05362   0.05366
 Alpha virt. eigenvalues --    0.07988   0.07991   0.08423   0.08430   0.08824

  Beta  occ. eigenvalues -- -197.30534 -22.52944 -19.34236 -19.34234 -19.34232
  Beta  occ. eigenvalues --  -19.34229 -19.34228 -19.34227 -19.01307 -18.99707
  Beta  occ. eigenvalues --  -18.99699  -2.78203  -1.81365  -1.77692  -1.77675
  Beta  occ. eigenvalues --   -1.15911  -1.14871  -1.14868  -1.14839  -1.14836
  Beta  occ. eigenvalues --   -1.14823  -0.65549  -0.65546  -0.65199  -0.65195
  Beta  occ. eigenvalues --   -0.64971  -0.64747  -0.60286  -0.57698  -0.57695
  Beta  occ. eigenvalues --   -0.55227  -0.55172  -0.55171  -0.46353  -0.44611
  Beta  occ. eigenvalues --   -0.44494  -0.44486  -0.44270  -0.44265
  Beta virt. eigenvalues --   -0.16235  -0.12472  -0.12466  -0.09253  -0.09249
  Beta virt. eigenvalues --   -0.04786  -0.00914  -0.00908  -0.00824   0.03494
  Beta virt. eigenvalues --    0.05559   0.05563   0.08143   0.08145   0.08645

 Mulliken charges and spin densities:
               1          2
     1  V    1.882026   2.049700
     2  O   -0.721122  -0.010868
     3  H    0.452648   0.001767
     4  O   -0.721307  -0.010910
     5  H    0.454752   0.000867
     6  O   -0.720988  -0.010963
     7  H    0.454737   0.000873
     8  O   -0.721068  -0.010902
     9  H    0.454673   0.000867
    10  O   -0.721181  -0.010901
    11  H    0.454911   0.000868
    12  O   -0.720789  -0.011026
    13  H    0.454713   0.000879
    14  H    0.452598   0.001786
    15  H    0.452718   0.001777
    16  H    0.454682   0.000864
    17  H    0.452795   0.001775
    18  H    0.452616   0.001776
    19  H    0.452586   0.001771
 Sum of Mulliken charges =   3.00000   2.00000

 Dipole moment (field-independent basis, Debye):
    X=              0.0005    Y=              0.0002    Z=             -0.0009  Tot=              0.0011
 Quadrupole moment (field-independent basis, Debye-Ang):
   XX=             -6.3672   YY=             -6.3653   ZZ=            -10.0124
   XY=             -0.0050   XZ=              0.0057   YZ=             -0.0019

 Normal termination of Gaussian 16 at Thu May 23 19:24:29 2024.
