 Gaussian 16, Revision C.02,

 ----------------------------------------------------------------------
 #p O3LYP 6-31+G(2df,p) opt=(cartesian,calcall,maxcycles=500,loose) fre
 q scf=(maxcycles=500,xqc,maxconventional=50) IOp(3/174=1000000) IOp(3/
 175=1805800) IOp(3/176=1406000)
 ----------------------------------------------------------------------

 -----
 Title
 -----
 Symbolic Z-matrix:
 Charge =  2 Multiplicity = 5

 SCF Done:  E(UO3LYP) =  -1721.54061165     A.U. after   25 cycles
 SCF Done:  E(UO3LYP) =  -1721.57486293     A.U. after   22 cycles
 SCF Done:  E(UO3LYP) =  -1721.63002582     A.U. after   23 cycles
 SCF Done:  E(UO3LYP) =  -1721.68236015     A.U. after   26 cycles
 SCF Done:  E(UO3LYP) =  -1721.69103832     A.U. after   25 cycles
 SCF Done:  E(UO3LYP) =  -1721.71450231     A.U. after   23 cycles
 SCF Done:  E(UO3LYP) =  -1721.74374355     A.U. after   24 cycles
 SCF Done:  E(UO3LYP) =  -1721.77583227     A.U. after   25 cycles
 SCF Done:  E(UO3LYP) =  -1721.79109217     A.U. after   26 cycles
 SCF Done:  E(UO3LYP) =  -1721.79801516     A.U. after   24 cycles
 SCF Done:  E(UO3LYP) =  -1721.80667517     A.U. after   22 cycles
 SCF Done:  E(UO3LYP) =  -1721.80876958     A.U. after   14 cycles
 SCF Done:  E(UO3LYP) =  -1721.80880320     A.U. after   23 cycles
 SCF Done:  E(UO3LYP) =  -1721.80879972     A.U. after   22 cycles
 SCF Done:  E(UO3LYP) =  -1721.80880712     A.U. after   22 cycles
 SCF Done:  E(UO3LYP) =  -1721.80879486     A.U. after   22 cycles
 SCF Done:  E(UO3LYP) =  -1721.80879289     A.U. after   16 cycles
 SCF Done:  E(UO3LYP) =  -1721.80880569     A.U. after   19 cycles
 Optimization completed.
    -- Stationary point found.
 Normal termination of Gaussian 16 at Wed Mar  5 20:30:59 2025.

 ----------------------------------------------------------------------
 #P Geom=AllCheck Guess=TCheck SCRF=Check Test GenChk UO3LYP/6-31+G(2df
 ,p) Freq
 ----------------------------------------------------------------------

 Structure from the checkpoint file:  "Fe_2_O3LYP.chk"
 -----
 Title
 -----
 Charge =  2 Multiplicity = 5

 SCF Done:  E(UO3LYP) =  -1721.80880569     A.U. after    1 cycles

  Exact polarizability:      57.937       0.214      57.370       0.087      -0.218      58.656
 Approx polarizability:      73.195       0.487      71.931       0.057      -0.027      75.172

                      1                      2                      3
                      A                      A                      A
 Frequencies --     79.3035                88.1004                89.2798
 Red. masses --      5.4893                 4.8229                 4.5884
 Frc consts  --      0.0203                 0.0221                 0.0215
 IR Inten    --      5.0838                 3.5089                 0.0182

                      4                      5                      6
                      A                      A                      A
 Frequencies --     90.0437                97.5517               114.4277
 Red. masses --      6.2689                 5.5595                 5.1183
 Frc consts  --      0.0299                 0.0312                 0.0395
 IR Inten    --     10.3022                 0.0219                 0.0749

                      7                      8                      9
                      A                      A                      A
 Frequencies --    120.3105               127.5558               128.8146
 Red. masses --      3.3381                 5.4611                 5.5420
 Frc consts  --      0.0285                 0.0524                 0.0542
 IR Inten    --      2.8909                 3.6449                 0.1958

                     10                     11                     12
                      A                      A                      A
 Frequencies --    133.1702               159.0801               193.6827
 Red. masses --      5.4844                 1.0890                 1.1130
 Frc consts  --      0.0573                 0.0162                 0.0246
 IR Inten    --      0.6491                 0.5971                 1.9554

                     13                     14                     15
                      A                      A                      A
 Frequencies --    208.9038               228.4791               265.3187
 Red. masses --      4.5710                 1.2911                 1.9212
 Frc consts  --      0.1175                 0.0397                 0.0797
 IR Inten    --      0.0158                 0.4583                52.9297

                     16                     17                     18
                      A                      A                      A
 Frequencies --    268.6511               269.1077               269.9159
 Red. masses --      2.5298                 1.1426                 1.2999
 Frc consts  --      0.1076                 0.0488                 0.0558
 IR Inten    --      5.1385                 1.1616                 0.4949

                     19                     20                     21
                      A                      A                      A
 Frequencies --    282.0002               302.1698               316.4810
 Red. masses --      3.6099                 5.6689                 1.0788
 Frc consts  --      0.1691                 0.3050                 0.0637
 IR Inten    --     23.4036                 0.0645                 0.8633

                     22                     23                     24
                      A                      A                      A
 Frequencies --    325.7678               340.5190               343.4681
 Red. masses --      1.2711                 1.2341                 1.0909
 Frc consts  --      0.0795                 0.0843                 0.0758
 IR Inten    --    363.7849               296.5414                64.8932

                     25                     26                     27
                      A                      A                      A
 Frequencies --    349.3063               362.6540               402.7548
 Red. masses --      1.0991                 1.1994                 1.0180
 Frc consts  --      0.0790                 0.0929                 0.0973
 IR Inten    --      4.2751               435.2105                 3.4242

                     28                     29                     30
                      A                      A                      A
 Frequencies --    502.0289               521.1597               524.5475
 Red. masses --      1.1410                 1.1668                 1.1710
 Frc consts  --      0.1694                 0.1867                 0.1898
 IR Inten    --      1.3373                61.3651               101.0674

                     31                     32                     33
                      A                      A                      A
 Frequencies --    526.4262               541.8514               551.0087
 Red. masses --      1.1606                 1.2011                 1.2113
 Frc consts  --      0.1895                 0.2078                 0.2167
 IR Inten    --     54.5655               242.3881               201.9019

                     34                     35                     36
                      A                      A                      A
 Frequencies --   1647.5222              1648.9354              1649.2742
 Red. masses --      1.0944                 1.0910                 1.0912
 Frc consts  --      1.7501                 1.7477                 1.7488
 IR Inten    --      7.4875               207.3705               182.2390

                     37                     38                     39
                      A                      A                      A
 Frequencies --   1650.0121              1651.8834              1659.1215
 Red. masses --      1.0921                 1.0902                 1.0842
 Frc consts  --      1.7517                 1.7528                 1.7584
 IR Inten    --      5.9288               186.4803                 0.3159

                     40                     41                     42
                      A                      A                      A
 Frequencies --   3780.3180              3780.4120              3782.4264
 Red. masses --      1.0441                 1.0443                 1.0442
 Frc consts  --      8.7915                 8.7930                 8.8017
 IR Inten    --     39.6883               198.5126                33.4941

                     43                     44                     45
                      A                      A                      A
 Frequencies --   3785.9247              3787.1863              3791.2548
 Red. masses --      1.0446                 1.0445                 1.0451
 Frc consts  --      8.8214                 8.8264                 8.8503
 IR Inten    --    172.5601               176.3684                27.4352

                     46                     47                     48
                      A                      A                      A
 Frequencies --   3874.1279              3874.5973              3877.3254
 Red. masses --      1.0843                 1.0843                 1.0841
 Frc consts  --      9.5888                 9.5911                 9.6021
 IR Inten    --      0.9382               361.3976               157.4499

                     49                     50                     51
                      A                      A                      A
 Frequencies --   3878.7700              3881.0756              3882.5928
 Red. masses --      1.0840                 1.0840                 1.0841
 Frc consts  --      9.6089                 9.6201                 9.6283
 IR Inten    --    146.8064               189.6142               208.0717

 - Thermochemistry -
 -------------------
 Temperature   298.150 Kelvin.  Pressure   1.00000 Atm.
 Atom     1 has atomic number 26 and mass  55.93494

 Molecular mass:   163.99833 amu.
 Principal axes and moments of inertia in atomic units:
                           1         2         3
     Eigenvalues --  1307.656241309.316461340.31354
           X            0.99643   0.08440   0.00002
           Y           -0.08440   0.99643  -0.00217
           Z           -0.00020   0.00216   1.00000
 This molecule is an asymmetric top.
 Rotational symmetry number  1.
 Warning -- assumption of classical behavior for rotation
           may cause significant error
 Rotational temperatures (Kelvin)      0.06624     0.06615     0.06462
 Rotational constants (GHZ):           1.38013     1.37838     1.34651
 Zero-point vibrational energy     388825.8 (Joules/Mol)
                                   92.93160 (Kcal/Mol)
 Warning -- explicit consideration of  33 degrees of freedom as
           vibrations may cause significant error
 Vibrational temperatures:    114.10   126.76   128.45   129.55   140.36
          (Kelvin)            164.64   173.10   183.52   185.34   191.60
                              228.88   278.67   300.57   328.73   381.73
                              386.53   387.19   388.35   405.74   434.75
                              455.35   468.71   489.93   494.17   502.57
                              521.78   579.47   722.31   749.83   754.71
                              757.41   779.60   792.78  2370.42  2372.45
                             2372.94  2374.00  2376.69  2387.11  5439.03
                             5439.17  5442.07  5447.10  5448.92  5454.77
                             5574.01  5574.68  5578.61  5580.68  5584.00
                             5586.19

 Zero-point correction=                           0.148096 (Hartree/Particle)
 Thermal correction to Energy=                    0.166908
 Thermal correction to Enthalpy=                  0.167852
 Thermal correction to Gibbs Free Energy=         0.102718
 Sum of electronic and zero-point Energies=          -1721.660710
 Sum of electronic and thermal Energies=             -1721.641898
 Sum of electronic and thermal Enthalpies=           -1721.640953
 Sum of electronic and thermal Free Energies=        -1721.706088

                     E (Thermal)             CV                S
                      KCal/Mol        Cal/Mol-Kelvin    Cal/Mol-Kelvin
 Total                  104.736             61.487            137.087
 Electronic               0.000              0.000              3.198
 Translational            0.889              2.981             41.193
 Rotational               0.889              2.981             29.219
 Vibrational            102.959             55.525             63.478
 Vibration     1          0.600              1.963              3.908
 Vibration     2          0.601              1.958              3.702
 Vibration     3          0.602              1.957              3.676
 Vibration     4          0.602              1.956              3.659
 Vibration     5          0.603              1.951              3.503
 Vibration     6          0.607              1.937              3.192
 Vibration     7          0.609              1.932              3.095
 Vibration     8          0.611              1.926              2.983
 Vibration     9          0.611              1.924              2.964
 Vibration    10          0.613              1.920              2.900
 Vibration    11          0.621              1.892              2.561
 Vibration    12          0.635              1.849              2.192
 Vibration    13          0.642              1.827              2.053
 Vibration    14          0.651              1.798              1.891
 Vibration    15          0.671              1.737              1.627
 Vibration    16          0.673              1.731              1.605
 Vibration    17          0.674              1.730              1.602
 Vibration    18          0.674              1.729              1.597
 Vibration    19          0.681              1.707              1.522
 Vibration    20          0.694              1.670              1.405
 Vibration    21          0.703              1.642              1.328
 Vibration    22          0.710              1.624              1.281
 Vibration    23          0.720              1.595              1.210
 Vibration    24          0.722              1.589              1.196
 Vibration    25          0.727              1.577              1.169
 Vibration    26          0.737              1.549              1.111
 Vibration    27          0.768              1.464              0.953
 Vibration    28          0.857              1.246              0.653
 Vibration    29          0.876              1.203              0.607
 Vibration    30          0.880              1.196              0.600
 Vibration    31          0.881              1.192              0.595
 Vibration    32          0.897              1.158              0.561
 Vibration    33          0.906              1.137              0.542

 Normal termination of Gaussian 16 at Wed Mar  5 20:32:47 2025.
 Gaussian 16:  ES64L-G16RevC.02  7-Dec-2021

 ----------------------------------------------------------------------
 #p O3LYP scrf=(cpcm,solvent=water) geom=allcheck guess=read chkbasis I
 Op(3/174=1000000) IOp(3/175=1805800) IOp(3/176=1406000)
 ----------------------------------------------------------------------

 Structure from the checkpoint file:  "Fe_2_O3LYP.chk_solvated"
 -----
 Title
 -----
 Charge =  2 Multiplicity = 5

                         Standard orientation:
 ---------------------------------------------------------------------
 Center     Atomic      Atomic             Coordinates (Angstroms)
 Number     Number       Type             X           Y           Z
 ---------------------------------------------------------------------
      1         26           0       -0.002436   -0.000521    0.000145
      2          8           0       -0.639951    1.859784    0.952452
      3          1           0       -0.692565    2.024897    1.901276
      4          8           0       -2.082151   -0.701703   -0.024653
      5          1           0       -2.433498   -1.447639   -0.524923
      6          8           0       -0.286024    0.937091   -1.915167
      7          1           0        0.364909    1.464237   -2.394053
      8          8           0        0.636404   -1.859951   -0.954051
      9          1           0        0.901736   -2.677235   -0.516356
     10          8           0        2.082670    0.696532    0.024749
     11          1           0        2.432462    1.455981    0.505474
     12          8           0        0.295297   -0.930415    1.916691
     13          1           0       -0.345533   -1.459462    2.406962
     14          1           0        1.119039   -0.951584    2.418597
     15          1           0       -2.823524   -0.327831    0.466354
     16          1           0       -0.934542    2.666859    0.513105
     17          1           0        2.826245    0.307217   -0.449963
     18          1           0       -1.102981    0.967146   -2.427557
     19          1           0        0.701631   -2.019724   -1.902835
 ---------------------------------------------------------------------

 SCF Done:  E(UO3LYP) =  -1722.08363071     A.U. after   21 cycles

 The electronic state is 5-A.
 Alpha  occ. eigenvalues -- -255.49904 -29.96444 -25.87512 -25.84544 -25.84457
 Alpha  occ. eigenvalues --  -19.05038 -19.05038 -19.04652 -19.04646 -19.04345
 Alpha  occ. eigenvalues --  -19.04314  -3.54413  -2.37365  -2.31294  -2.31118
 Alpha  occ. eigenvalues --   -1.04839  -1.04568  -1.04231  -1.04212  -1.03871
 Alpha  occ. eigenvalues --   -1.03829  -0.57169  -0.57056  -0.56849  -0.56764
 Alpha  occ. eigenvalues --   -0.56399  -0.56351  -0.50261  -0.48738  -0.47827
 Alpha  occ. eigenvalues --   -0.46374  -0.45980  -0.45447  -0.39306  -0.39215
 Alpha  occ. eigenvalues --   -0.35849  -0.35808  -0.35378  -0.35046  -0.34164
 Alpha  occ. eigenvalues --   -0.33861  -0.31911  -0.30738  -0.30503
 Alpha virt. eigenvalues --   -0.06442  -0.02463  -0.02396  -0.02370   0.03293
 Alpha virt. eigenvalues --    0.03333   0.03559   0.07545   0.07754   0.07770
 Alpha virt. eigenvalues --    0.07998   0.08038   0.08427   0.11478   0.13638

  Beta  occ. eigenvalues -- -255.49816 -29.88629 -25.80452 -25.78902 -25.78855
  Beta  occ. eigenvalues --  -19.04931 -19.04931 -19.04565 -19.04559 -19.04257
  Beta  occ. eigenvalues --  -19.04227  -3.35861  -2.14944  -2.13588  -2.13539
  Beta  occ. eigenvalues --   -1.04622  -1.04344  -1.04051  -1.04016  -1.03701
  Beta  occ. eigenvalues --   -1.03651  -0.57012  -0.56930  -0.56669  -0.56642
  Beta  occ. eigenvalues --   -0.56259  -0.56242  -0.49462  -0.45890  -0.45797
  Beta  occ. eigenvalues --   -0.45530  -0.45150  -0.45033  -0.35793  -0.35695
  Beta  occ. eigenvalues --   -0.35481  -0.35166  -0.34969  -0.34834  -0.21682
  Beta virt. eigenvalues --   -0.12191  -0.11715  -0.08970  -0.06466  -0.06189
  Beta virt. eigenvalues --   -0.02402  -0.02335  -0.02323   0.03667   0.03773
  Beta virt. eigenvalues --    0.03973   0.07696   0.07836   0.07912   0.08111

 Mulliken charges and spin densities:
               1          2
     1  Fe   1.324949   3.872166
     2  O   -0.694485   0.013137
     3  H    0.402429   0.002303
     4  O   -0.687095   0.017274
     5  H    0.399667   0.001880
     6  O   -0.694532   0.021784
     7  H    0.404461   0.001673
     8  O   -0.694613   0.013069
     9  H    0.403626   0.002560
    10  O   -0.688907   0.016668
    11  H    0.399924   0.001920
    12  O   -0.694474   0.021859
    13  H    0.404580   0.001690
    14  H    0.404405   0.001678
    15  H    0.399675   0.001875
    16  H    0.403778   0.002562
    17  H    0.399715   0.001900
    18  H    0.404548   0.001702
    19  H    0.402348   0.002301
 Sum of Mulliken charges =   2.00000   4.00000

 Dipole moment (field-independent basis, Debye):
    X=             -0.0178    Y=             -0.0037    Z=             -0.0059  Tot=              0.0191
 Quadrupole moment (field-independent basis, Debye-Ang):
   XX=            -15.9397   YY=            -15.5750   ZZ=            -15.2065
   XY=             -0.1661   XZ=              0.0362   YZ=             -0.1472

 Normal termination of Gaussian 16 at Wed Mar  5 20:33:27 2025.
