 Gaussian 16, Revision C.02,

 ----------------------------------------------------------------------
 #p HSEH1PBE geom=allcheck guess=read chkbasis opt=(cartesian,calcall,m
 axcycles=500) freq scf=(maxcycles=500,xqc,maxconventional=50) IOp(3/17
 4=1000000) IOp(3/175=109000) IOp(3/176=1129000)
 ----------------------------------------------------------------------

 Structure from the checkpoint file:  "Fe_2_HSE06.chk"
 -----
 Title
 -----
 Charge =  2 Multiplicity = 5

 SCF Done:  E(UHSEH1PBE) =  -1721.13608462     A.U. after    1 cycles
 SCF Done:  E(UHSEH1PBE) =  -1721.13608527     A.U. after   20 cycles
 SCF Done:  E(UHSEH1PBE) =  -1721.13608543     A.U. after   12 cycles
 Optimization completed.
    -- Stationary point found.
 Normal termination of Gaussian 16 at Thu Mar  6 07:41:48 2025.

 ----------------------------------------------------------------------
 #P Geom=AllCheck Guess=TCheck SCRF=Check Test GenChk UHSEH1PBE/ChkBas
 Freq
 ----------------------------------------------------------------------

 Structure from the checkpoint file:  "Fe_2_HSE06.chk"
 -----
 Title
 -----
 Charge =  2 Multiplicity = 5

 SCF Done:  E(UHSEH1PBE) =  -1721.13608543     A.U. after    1 cycles

  Exact polarizability:      54.718      -0.013      55.496       0.148       0.004      55.934
 Approx polarizability:      66.689      -0.028      68.383      -0.019       0.005      69.760

                      1                      2                      3
                      A                      A                      A
 Frequencies --     79.9297                82.4350                88.8687
 Red. masses --      5.0770                 3.9862                 4.7512
 Frc consts  --      0.0191                 0.0160                 0.0221
 IR Inten    --      4.8773                 0.0000                 3.6911

                      4                      5                      6
                      A                      A                      A
 Frequencies --     91.2552                94.4734               110.8714
 Red. masses --      6.0743                 5.2168                 4.8279
 Frc consts  --      0.0298                 0.0274                 0.0350
 IR Inten    --      9.6148                 0.0000                 0.0000

                      7                      8                      9
                      A                      A                      A
 Frequencies --    115.6126               126.4179               130.9482
 Red. masses --      3.1981                 5.4424                 5.1301
 Frc consts  --      0.0252                 0.0512                 0.0518
 IR Inten    --      1.0159                 2.7802                 0.6714

                     10                     11                     12
                      A                      A                      A
 Frequencies --    149.0751               180.3636               193.3889
 Red. masses --      1.0943                 5.4823                 1.0734
 Frc consts  --      0.0143                 0.1051                 0.0237
 IR Inten    --      0.0000                 0.0000                 4.0905

                     13                     14                     15
                      A                      A                      A
 Frequencies --    240.5513               245.9076               282.4335
 Red. masses --      1.1124                 3.2754                 1.2000
 Frc consts  --      0.0379                 0.1167                 0.0564
 IR Inten    --      1.9838                 0.0000                 0.0000

                     16                     17                     18
                      A                      A                      A
 Frequencies --    286.5826               305.5780               314.7989
 Red. masses --      1.0567                 2.1482                 4.3422
 Frc consts  --      0.0511                 0.1182                 0.2535
 IR Inten    --      0.0000               110.1315                19.3845

                     19                     20                     21
                      A                      A                      A
 Frequencies --    324.6780               334.7229               339.6923
 Red. masses --      2.6857                 1.0837                 5.8301
 Frc consts  --      0.1668                 0.0715                 0.3964
 IR Inten    --     73.2181                 0.0000                 0.0000

                     22                     23                     24
                      A                      A                      A
 Frequencies --    357.5740               362.7453               369.5328
 Red. masses --      1.4831                 1.0832                 1.1120
 Frc consts  --      0.1117                 0.0840                 0.0895
 IR Inten    --    310.9509                 0.0000                 0.0000

                     25                     26                     27
                      A                      A                      A
 Frequencies --    372.4280               390.6706               418.1431
 Red. masses --      1.4397                 1.2607                 1.0271
 Frc consts  --      0.1177                 0.1134                 0.1058
 IR Inten    --    297.6346               411.2463                 6.9661

                     28                     29                     30
                      A                      A                      A
 Frequencies --    503.8260               523.0774               525.8963
 Red. masses --      1.1495                 1.1625                 1.1549
 Frc consts  --      0.1719                 0.1874                 0.1882
 IR Inten    --      0.0000                 0.0000                 0.0378

                     31                     32                     33
                      A                      A                      A
 Frequencies --    526.0494               545.9772               551.3021
 Red. masses --      1.2239                 1.2271                 1.2341
 Frc consts  --      0.1995                 0.2155                 0.2210
 IR Inten    --    252.3936               283.0634               226.5357

                     34                     35                     36
                      A                      A                      A
 Frequencies --   1647.7236              1648.9081              1649.3952
 Red. masses --      1.0949                 1.0910                 1.0914
 Frc consts  --      1.7514                 1.7476                 1.7494
 IR Inten    --      0.0000               241.0253               222.4906

                     37                     38                     39
                      A                      A                      A
 Frequencies --   1650.7865              1652.9679              1659.5037
 Red. masses --      1.0923                 1.0903                 1.0843
 Frc consts  --      1.7538                 1.7551                 1.7594
 IR Inten    --      0.0000               221.5086                 0.0000

                     40                     41                     42
                      A                      A                      A
 Frequencies --   3801.4687              3801.8703              3805.4413
 Red. masses --      1.0442                 1.0440                 1.0438
 Frc consts  --      8.8904                 8.8912                 8.9060
 IR Inten    --    237.1332                 0.0005                 0.0000

                     43                     44                     45
                      A                      A                      A
 Frequencies --   3808.2919              3808.4203              3812.9296
 Red. masses --      1.0444                 1.0444                 1.0450
 Frc consts  --      8.9246                 8.9248                 8.9517
 IR Inten    --    222.3099               243.7106                 0.0000

                     46                     47                     48
                      A                      A                      A
 Frequencies --   3894.2651              3894.8452              3900.4084
 Red. masses --      1.0847                 1.0847                 1.0844
 Frc consts  --      9.6919                 9.6952                 9.7202
 IR Inten    --      0.0005               402.6675                 0.0003

                     49                     50                     51
                      A                      A                      A
 Frequencies --   3900.6945              3901.2516              3901.9036
 Red. masses --      1.0844                 1.0844                 1.0845
 Frc consts  --      9.7217                 9.7243                 9.7285
 IR Inten    --    326.4921                 0.0015               459.4113

 - Thermochemistry -
 -------------------
 Temperature   298.150 Kelvin.  Pressure   1.00000 Atm.
 Atom     1 has atomic number 26 and mass  55.93494

 Molecular mass:   163.99833 amu.
 Principal axes and moments of inertia in atomic units:
                           1         2         3
     Eigenvalues --  1258.101581261.173791287.09918
           X            1.00000  -0.00167   0.00181
           Y            0.00167   1.00000   0.00006
           Z           -0.00181  -0.00006   1.00000
 This molecule is an asymmetric top.
 Rotational symmetry number  1.
 Warning -- assumption of classical behavior for rotation
           may cause significant error
 Rotational temperatures (Kelvin)      0.06884     0.06868     0.06729
 Rotational constants (GHZ):           1.43450     1.43100     1.40218
 Zero-point vibrational energy     393014.4 (Joules/Mol)
                                   93.93270 (Kcal/Mol)
 Warning -- explicit consideration of  33 degrees of freedom as
           vibrations may cause significant error
 Vibrational temperatures:    115.00   118.61   127.86   131.30   135.93
          (Kelvin)            159.52   166.34   181.89   188.41   214.49
                              259.50   278.24   346.10   353.81   406.36
                              412.33   439.66   452.93   467.14   481.59
                              488.74   514.47   521.91   531.68   535.84
                              562.09   601.61   724.89   752.59   756.65
                              756.87   785.54   793.20  2370.71  2372.41
                             2373.11  2375.11  2378.25  2387.66  5469.47
                             5470.04  5475.18  5479.28  5479.47  5485.96
                             5602.98  5603.81  5611.82  5612.23  5613.03
                             5613.97

 Zero-point correction=                           0.149691 (Hartree/Particle)
 Thermal correction to Energy=                    0.167963
 Thermal correction to Enthalpy=                  0.168907
 Thermal correction to Gibbs Free Energy=         0.104973
 Sum of electronic and zero-point Energies=          -1720.986394
 Sum of electronic and thermal Energies=             -1720.968122
 Sum of electronic and thermal Enthalpies=           -1720.967178
 Sum of electronic and thermal Free Energies=        -1721.031112

                     E (Thermal)             CV                S
                      KCal/Mol        Cal/Mol-Kelvin    Cal/Mol-Kelvin
 Total                  105.398             60.652            134.560
 Electronic               0.000              0.000              3.198
 Translational            0.889              2.981             41.193
 Rotational               0.889              2.981             29.103
 Vibrational            103.621             54.690             61.067
 Vibration     1          0.600              1.963              3.893
 Vibration     2          0.600              1.961              3.832
 Vibration     3          0.602              1.957              3.685
 Vibration     4          0.602              1.955              3.633
 Vibration     5          0.603              1.953              3.565
 Vibration     6          0.607              1.940              3.254
 Vibration     7          0.608              1.936              3.172
 Vibration     8          0.611              1.927              3.000
 Vibration     9          0.612              1.922              2.932
 Vibration    10          0.618              1.904              2.684
 Vibration    11          0.629              1.866              2.325
 Vibration    12          0.635              1.849              2.195
 Vibration    13          0.658              1.778              1.799
 Vibration    14          0.660              1.770              1.760
 Vibration    15          0.681              1.706              1.519
 Vibration    16          0.684              1.699              1.494
 Vibration    17          0.696              1.663              1.386
 Vibration    18          0.702              1.645              1.337
 Vibration    19          0.709              1.626              1.286
 Vibration    20          0.716              1.606              1.237
 Vibration    21          0.720              1.596              1.214
 Vibration    22          0.733              1.560              1.133
 Vibration    23          0.737              1.549              1.110
 Vibration    24          0.742              1.535              1.082
 Vibration    25          0.744              1.529              1.070
 Vibration    26          0.758              1.490              0.998
 Vibration    27          0.781              1.431              0.898
 Vibration    28          0.859              1.242              0.649
 Vibration    29          0.878              1.199              0.603
 Vibration    30          0.881              1.193              0.596
 Vibration    31          0.881              1.192              0.596
 Vibration    32          0.901              1.148              0.553
 Vibration    33          0.907              1.137              0.541

 Optimization completed.
    -- Stationary point found.
 Normal termination of Gaussian 16 at Thu Mar  6 07:44:16 2025.
 Gaussian 16:  ES64L-G16RevC.02  7-Dec-2021

 ----------------------------------------------------------------------
 #p HSEH1PBE scrf=(cpcm,solvent=water) geom=allcheck guess=read chkbasi
 s IOp(3/174=1000000) IOp(3/175=109000) IOp(3/176=1129000)
 ----------------------------------------------------------------------

 Structure from the checkpoint file:  "Fe_2_HSE06.chk_solvated"
 -----
 Title
 -----
 Charge =  2 Multiplicity = 5

                         Standard orientation:
 ---------------------------------------------------------------------
 Center     Atomic      Atomic             Coordinates (Angstroms)
 Number     Number       Type             X           Y           Z
 ---------------------------------------------------------------------
      1         26           0        0.000001    0.000012   -0.000003
      2          8           0       -1.880817   -0.030197    1.023763
      3          1           0       -2.756810   -0.045464    0.621271
      4          8           0       -0.035262    2.146988   -0.001051
      5          1           0        0.531527    2.730082   -0.519009
      6          8           0        1.049202    0.018039    1.834287
      7          1           0        1.371413   -0.753564    2.315065
      8          8           0        1.880831    0.030219   -1.023742
      9          1           0        2.006854    0.031512   -1.979625
     10          8           0        0.035239   -2.146979    0.001040
     11          1           0        0.621078   -2.711510   -0.516284
     12          8           0       -1.049195   -0.018098   -1.834292
     13          1           0       -1.371426    0.753456   -2.315134
     14          1           0       -1.345444   -0.800219   -2.314771
     15          1           0       -0.621049    2.711510    0.516343
     16          1           0       -2.006818   -0.031553    1.979649
     17          1           0       -0.531623   -2.730064    0.518927
     18          1           0        1.345472    0.800111    2.314832
     19          1           0        2.756812    0.045631   -0.621230
 ---------------------------------------------------------------------

 SCF Done:  E(UHSEH1PBE) =  -1721.41196186     A.U. after   20 cycles

 The electronic state is 5-A.
 Alpha  occ. eigenvalues -- -256.41031 -30.22528 -26.06245 -26.03186 -26.03174
 Alpha  occ. eigenvalues --  -19.27739 -19.27739 -19.27398 -19.27398 -19.27121
 Alpha  occ. eigenvalues --  -19.27121  -3.63899  -2.44197  -2.37805  -2.37801
 Alpha  occ. eigenvalues --   -1.09253  -1.08833  -1.08539  -1.08493  -1.08211
 Alpha  occ. eigenvalues --   -1.08146  -0.59583  -0.59416  -0.59303  -0.59181
 Alpha  occ. eigenvalues --   -0.58850  -0.58787  -0.53341  -0.51796  -0.50956
 Alpha  occ. eigenvalues --   -0.48857  -0.48467  -0.48009  -0.41889  -0.41855
 Alpha  occ. eigenvalues --   -0.38422  -0.38282  -0.37890  -0.37601  -0.36118
 Alpha  occ. eigenvalues --   -0.35870  -0.33087  -0.32145  -0.31803
 Alpha virt. eigenvalues --   -0.05270  -0.01011  -0.00943  -0.00926   0.04024
 Alpha virt. eigenvalues --    0.04950   0.05042   0.08843   0.09065   0.09270
 Alpha virt. eigenvalues --    0.09307   0.09564   0.09926   0.13513   0.14900

  Beta  occ. eigenvalues -- -256.40960 -30.14765 -25.98573 -25.97220 -25.97217
  Beta  occ. eigenvalues --  -19.27608 -19.27608 -19.27289 -19.27289 -19.27010
  Beta  occ. eigenvalues --  -19.27010  -3.43667  -2.18558  -2.18156  -2.18129
  Beta  occ. eigenvalues --   -1.09020  -1.08591  -1.08340  -1.08267  -1.08022
  Beta  occ. eigenvalues --   -1.07941  -0.59424  -0.59299  -0.59081  -0.59057
  Beta  occ. eigenvalues --   -0.58684  -0.58681  -0.52458  -0.48280  -0.48065
  Beta  occ. eigenvalues --   -0.47937  -0.47513  -0.47480  -0.38308  -0.38248
  Beta  occ. eigenvalues --   -0.37910  -0.37656  -0.37553  -0.37357  -0.24047
  Beta virt. eigenvalues --   -0.08221  -0.07683  -0.04962  -0.04406  -0.01805
  Beta virt. eigenvalues --   -0.00888  -0.00830  -0.00825   0.04330   0.05742
  Beta virt. eigenvalues --    0.06042   0.09086   0.09312   0.09376   0.09596

 Mulliken charges and spin densities:
               1          2
     1  Fe   1.133126   3.897514
     2  O   -0.691265   0.008304
     3  H    0.418214   0.003044
     4  O   -0.687280   0.012748
     5  H    0.414647   0.002218
     6  O   -0.691160   0.015921
     7  H    0.419117   0.002045
     8  O   -0.691263   0.008304
     9  H    0.417434   0.002703
    10  O   -0.687289   0.012746
    11  H    0.414639   0.002217
    12  O   -0.691159   0.015921
    13  H    0.419118   0.002045
    14  H    0.419093   0.002046
    15  H    0.414638   0.002216
    16  H    0.417434   0.002703
    17  H    0.414648   0.002218
    18  H    0.419094   0.002046
    19  H    0.418214   0.003044
 Sum of Mulliken charges =   2.00000   4.00000

 Dipole moment (field-independent basis, Debye):
    X=             -0.0000    Y=              0.0001    Z=              0.0000  Tot=              0.0001
 Quadrupole moment (field-independent basis, Debye-Ang):
   XX=            -15.6216   YY=            -16.0443   ZZ=            -15.1758
   XY=              0.0076   XZ=              0.1318   YZ=              0.0049

 Normal termination of Gaussian 16 at Thu Mar  6 07:46:09 2025.
