 Gaussian 16, Revision C.02,

 ----------------------------------------------------------------------
 #p B97D geom=allcheck guess=read chkbasis opt=(loose,cartesian,calcall
 ,maxcycles=500) freq scf=(maxcycles=500,xqc,maxconventional=50) IOp(3/
 174=1000000) IOp(3/175=909000) IOp(3/176=892000)
 ----------------------------------------------------------------------

 Structure from the checkpoint file:  "Fe_2_B97D.chk"
 -----
 Title
 -----
 Charge =  2 Multiplicity = 5

 SCF Done:  E(UB97D) =  -1722.02971100     A.U. after    1 cycles
 SCF Done:  E(UB97D) =  -1722.02970141     A.U. after   19 cycles
 SCF Done:  E(UB97D) =  -1722.02970936     A.U. after   15 cycles
 SCF Done:  E(UB97D) =  -1722.02971089     A.U. after    5 cycles
 Optimization completed.
    -- Stationary point found.
 Normal termination of Gaussian 16 at Thu Mar  6 18:05:54 2025.

 ----------------------------------------------------------------------
 #P Geom=AllCheck Guess=TCheck SCRF=Check Test GenChk UB97D/ChkBas Freq
 ----------------------------------------------------------------------

 Structure from the checkpoint file:  "Fe_2_B97D.chk"
 -----
 Title
 -----
 Charge =  2 Multiplicity = 5

 SCF Done:  E(UB97D) =  -1722.01534783     A.U. after    1 cycles

  Exact polarizability:      61.647       0.111      61.770       1.594      -0.051      62.200
 Approx polarizability:      83.448      -0.021      85.309       2.700      -0.282      86.951

                      1                      2                      3
                      A                      A                      A
 Frequencies --     86.9982                87.8100                92.9631
 Red. masses --      5.7826                 4.9331                 5.1117
 Frc consts  --      0.0258                 0.0224                 0.0260
 IR Inten    --      5.9862                 0.0000                 3.6941

                      4                      5                      6
                      A                      A                      A
 Frequencies --     99.3024               102.0128               115.2984
 Red. masses --      5.3482                 5.6556                 5.0898
 Frc consts  --      0.0311                 0.0347                 0.0399
 IR Inten    --      0.0000                 6.5027                 0.0000

                      7                      8                      9
                      A                      A                      A
 Frequencies --    131.9489               136.8822               141.6812
 Red. masses --      6.2226                 5.2750                 4.3383
 Frc consts  --      0.0638                 0.0582                 0.0513
 IR Inten    --      1.5803                 0.5693                 1.2485

                     10                     11                     12
                      A                      A                      A
 Frequencies --    164.7748               209.6136               223.9568
 Red. masses --      2.0113                 1.4461                 3.1822
 Frc consts  --      0.0322                 0.0374                 0.0940
 IR Inten    --      0.0000                 0.0000                38.5250

                     13                     14                     15
                      A                      A                      A
 Frequencies --    227.1674               247.3998               255.0812
 Red. masses --      1.7401                 2.3578                 1.0346
 Frc consts  --      0.0529                 0.0850                 0.0397
 IR Inten    --      0.0000                 0.0000                55.1027

                     16                     17                     18
                      A                      A                      A
 Frequencies --    298.4732               304.8693               306.1056
 Red. masses --      1.3530                 1.1845                 2.2822
 Frc consts  --      0.0710                 0.0649                 0.1260
 IR Inten    --    360.1690                 0.0013                60.9502

                     19                     20                     21
                      A                      A                      A
 Frequencies --    307.8709               321.7051               325.5814
 Red. masses --      2.2218                 3.2926                 1.1625
 Frc consts  --      0.1241                 0.2008                 0.0726
 IR Inten    --    111.0461                 0.0000                 0.0000

                     22                     23                     24
                      A                      A                      A
 Frequencies --    328.7204               347.1290               362.5707
 Red. masses --      1.0308                 1.5620                 1.7001
 Frc consts  --      0.0656                 0.1109                 0.1317
 IR Inten    --     15.1309               314.4061               309.6161

                     25                     26                     27
                      A                      A                      A
 Frequencies --    363.8601               383.0871               478.8408
 Red. masses --      1.0360                 1.0340                 1.0185
 Frc consts  --      0.0808                 0.0894                 0.1376
 IR Inten    --      0.0001                 0.0000                36.3780

                     28                     29                     30
                      A                      A                      A
 Frequencies --    506.6576               532.3136               540.0764
 Red. masses --      1.1169                 1.1575                 1.1517
 Frc consts  --      0.1689                 0.1932                 0.1979
 IR Inten    --      0.0000               174.3253                 0.0000

                     31                     32                     33
                      A                      A                      A
 Frequencies --    545.2222               568.7473               576.9503
 Red. masses --      1.1518                 1.1954                 1.2150
 Frc consts  --      0.2017                 0.2278                 0.2383
 IR Inten    --      0.0000               182.7283               167.9632

                     34                     35                     36
                      A                      A                      A
 Frequencies --   1604.8254              1605.1112              1606.0572
 Red. masses --      1.0920                 1.0912                 1.0931
 Frc consts  --      1.6570                 1.6563                 1.6613
 IR Inten    --    203.8555               197.3808                 0.0000

                     37                     38                     39
                      A                      A                      A
 Frequencies --   1610.0507              1611.4928              1615.2439
 Red. masses --      1.0901                 1.0888                 1.0844
 Frc consts  --      1.6649                 1.6659                 1.6669
 IR Inten    --      0.0000               170.3615                 0.0000

                     40                     41                     42
                      A                      A                      A
 Frequencies --   3663.2785              3664.5276              3670.2538
 Red. masses --      1.0427                 1.0426                 1.0428
 Frc consts  --      8.2440                 8.2493                 8.2767
 IR Inten    --    191.3256                 0.0000               240.3725

                     43                     44                     45
                      A                      A                      A
 Frequencies --   3670.5785              3672.3618              3675.1118
 Red. masses --      1.0430                 1.0437                 1.0439
 Frc consts  --      8.2796                 8.2930                 8.3071
 IR Inten    --      0.0073               176.3082                 0.0012

                     46                     47                     48
                      A                      A                      A
 Frequencies --   3774.3406              3775.0237              3780.0628
 Red. masses --      1.0858                 1.0858                 1.0845
 Frc consts  --      9.1133                 9.1167                 9.1304
 IR Inten    --      0.0002               362.9044                 0.2631

                     49                     50                     51
                      A                      A                      A
 Frequencies --   3780.3743              3782.2226              3782.6436
 Red. masses --      1.0846                 1.0855                 1.0857
 Frc consts  --      9.1328                 9.1493                 9.1525
 IR Inten    --    313.2761                 0.0087               372.7659

 - Thermochemistry -
 -------------------
 Temperature   298.150 Kelvin.  Pressure   1.00000 Atm.
 Atom     1 has atomic number 26 and mass  55.93494

 Molecular mass:   163.99833 amu.
 Principal axes and moments of inertia in atomic units:
                           1         2         3
     Eigenvalues --  1228.720111341.264871372.24745
           X            0.99994  -0.00008  -0.01127
           Y            0.00018   0.99996   0.00928
           Z            0.01127  -0.00929   0.99989
 This molecule is an asymmetric top.
 Rotational symmetry number  1.
 Warning -- assumption of classical behavior for rotation
           may cause significant error
 Rotational temperatures (Kelvin)      0.07049     0.06458     0.06312
 Rotational constants (GHZ):           1.46880     1.34555     1.31517
 Zero-point vibrational energy     383195.2 (Joules/Mol)
                                   91.58585 (Kcal/Mol)
 Warning -- explicit consideration of  33 degrees of freedom as
           vibrations may cause significant error
 Vibrational temperatures:    125.17   126.34   133.75   142.87   146.77
          (Kelvin)            165.89   189.85   196.94   203.85   237.07
                              301.59   322.22   326.84   355.95   367.00
                              429.44   438.64   440.42   442.96   462.86
                              468.44   472.96   499.44   521.66   523.51
                              551.18   688.95   728.97   765.88   777.05
                              784.45   818.30   830.10  2308.99  2309.40
                             2310.76  2316.50  2318.58  2323.98  5270.64
                             5272.44  5280.68  5281.14  5283.71  5287.67
                             5430.43  5431.42  5438.67  5439.12  5441.77
                             5442.38

 Zero-point correction=                           0.145951 (Hartree/Particle)
 Thermal correction to Energy=                    0.164030
 Thermal correction to Enthalpy=                  0.164975
 Thermal correction to Gibbs Free Energy=         0.101787
 Sum of electronic and zero-point Energies=          -1721.869396
 Sum of electronic and thermal Energies=             -1721.851317
 Sum of electronic and thermal Enthalpies=           -1721.850373
 Sum of electronic and thermal Free Energies=        -1721.913561

                     E (Thermal)             CV                S
                      KCal/Mol        Cal/Mol-Kelvin    Cal/Mol-Kelvin
 Total                  102.931             60.480            132.990
 Electronic               0.000              0.000              3.198
 Translational            0.889              2.981             41.193
 Rotational               0.889              2.981             29.204
 Vibrational            101.153             54.519             59.395
 Vibration     1          0.601              1.958              3.726
 Vibration     2          0.601              1.958              3.708
 Vibration     3          0.602              1.954              3.597
 Vibration     4          0.604              1.950              3.468
 Vibration     5          0.604              1.948              3.415
 Vibration     6          0.608              1.937              3.178
 Vibration     7          0.612              1.921              2.917
 Vibration     8          0.614              1.916              2.847
 Vibration     9          0.615              1.912              2.781
 Vibration    10          0.623              1.886              2.494
 Vibration    11          0.642              1.826              2.047
 Vibration    12          0.649              1.805              1.927
 Vibration    13          0.651              1.800              1.901
 Vibration    14          0.661              1.767              1.749
 Vibration    15          0.665              1.754              1.695
 Vibration    16          0.692              1.677              1.425
 Vibration    17          0.696              1.664              1.390
 Vibration    18          0.696              1.662              1.383
 Vibration    19          0.698              1.659              1.374
 Vibration    20          0.707              1.632              1.301
 Vibration    21          0.710              1.624              1.282
 Vibration    22          0.712              1.618              1.266
 Vibration    23          0.725              1.581              1.179
 Vibration    24          0.736              1.549              1.111
 Vibration    25          0.737              1.547              1.106
 Vibration    26          0.752              1.506              1.027
 Vibration    27          0.835              1.297              0.713
 Vibration    28          0.862              1.235              0.642
 Vibration    29          0.887              1.179              0.582
 Vibration    30          0.895              1.161              0.565
 Vibration    31          0.900              1.150              0.554
 Vibration    32          0.925              1.099              0.507
 Vibration    33          0.933              1.081              0.491

 Normal termination of Gaussian 16 at Thu Mar  6 18:07:25 2025.
 Gaussian 16:  ES64L-G16RevC.02  7-Dec-2021

 ----------------------------------------------------------------------
 #p B97D scrf=(cpcm,solvent=water) geom=allcheck guess=read chkbasis IO
 p(3/174=1000000) IOp(3/175=909000) IOp(3/176=892000)
 ----------------------------------------------------------------------

 Structure from the checkpoint file:  "Fe_2_B97D.chk_solvated"
 -----
 Title
 -----
 Charge =  2 Multiplicity = 5

                         Standard orientation:
 ---------------------------------------------------------------------
 Center     Atomic      Atomic             Coordinates (Angstroms)
 Number     Number       Type             X           Y           Z
 ---------------------------------------------------------------------
      1         26           0        0.000000    0.000000   -0.000000
      2          8           0       -0.004289    2.110355   -0.260624
      3          1           0       -0.401648    2.581391   -1.010918
      4          8           0        2.032277   -0.125807   -0.985601
      5          1           0        2.456402   -0.966793   -1.221091
      6          8           0        1.130919    0.234456    1.795395
      7          1           0        0.824861    0.394890    2.702779
      8          8           0        0.004290   -2.110355    0.260624
      9          1           0       -0.449325   -2.752085   -0.309529
     10          8           0       -2.032276    0.125807    0.985602
     11          1           0       -2.456407    0.966796    1.221080
     12          8           0       -1.130920   -0.234456   -1.795395
     13          1           0       -0.824864   -0.394890   -2.702779
     14          1           0       -2.102266   -0.237593   -1.787069
     15          1           0        2.406730    0.559467   -1.562428
     16          1           0        0.449322    2.752085    0.309531
     17          1           0       -2.406727   -0.559463    1.562437
     18          1           0        2.102265    0.237589    1.787071
     19          1           0        0.401652   -2.581392    1.010916
 ---------------------------------------------------------------------

 SCF Done:  E(UB97D) =  -1722.30536531     A.U. after   17 cycles

 The electronic state is 5-A.
 Alpha  occ. eigenvalues -- -254.71659 -29.71920 -25.70852 -25.68054 -25.67935
 Alpha  occ. eigenvalues --  -18.84443 -18.84443 -18.83940 -18.83940 -18.82840
 Alpha  occ. eigenvalues --  -18.82840  -3.43023  -2.28443  -2.22647  -2.22423
 Alpha  occ. eigenvalues --   -0.99667  -0.99447  -0.98862  -0.98851  -0.97784
 Alpha  occ. eigenvalues --   -0.97782  -0.54815  -0.54718  -0.54203  -0.54117
 Alpha  occ. eigenvalues --   -0.52955  -0.52909  -0.47380  -0.45421  -0.43709
 Alpha  occ. eigenvalues --   -0.43012  -0.42840  -0.41235  -0.35761  -0.35354
 Alpha  occ. eigenvalues --   -0.33348  -0.32795  -0.32611  -0.31646  -0.30648
 Alpha  occ. eigenvalues --   -0.30435  -0.27987  -0.26919  -0.25907
 Alpha virt. eigenvalues --   -0.06647  -0.02339  -0.02264  -0.02094   0.02827
 Alpha virt. eigenvalues --    0.03069   0.03334   0.06885   0.07312   0.07471
 Alpha virt. eigenvalues --    0.07619   0.07768   0.08280   0.10325   0.13304

  Beta  occ. eigenvalues -- -254.71558 -29.64543 -25.64619 -25.62984 -25.62898
  Beta  occ. eigenvalues --  -18.84353 -18.84353 -18.83849 -18.83849 -18.82783
  Beta  occ. eigenvalues --  -18.82783  -3.25491  -2.08452  -2.06620  -2.06447
  Beta  occ. eigenvalues --   -0.99408  -0.99194  -0.98616  -0.98615  -0.97651
  Beta  occ. eigenvalues --   -0.97640  -0.54599  -0.54551  -0.54040  -0.53977
  Beta  occ. eigenvalues --   -0.52825  -0.52806  -0.46421  -0.43210  -0.43074
  Beta  occ. eigenvalues --   -0.42442  -0.41220  -0.40903  -0.33385  -0.33026
  Beta  occ. eigenvalues --   -0.32839  -0.32464  -0.31863  -0.31498  -0.17655
  Beta virt. eigenvalues --   -0.16039  -0.15810  -0.13189  -0.10121  -0.06246
  Beta virt. eigenvalues --   -0.02142  -0.02133  -0.01964   0.03087   0.03393
  Beta virt. eigenvalues --    0.03936   0.07116   0.07534   0.07737   0.07760

 Mulliken charges and spin densities:
               1          2
     1  Fe   1.159791   3.820870
     2  O   -0.679624   0.029135
     3  H    0.411851   0.001847
     4  O   -0.671917   0.016045
     5  H    0.402502   0.001785
     6  O   -0.673698   0.035470
     7  H    0.410778   0.001242
     8  O   -0.679624   0.029135
     9  H    0.411964   0.001922
    10  O   -0.671917   0.016046
    11  H    0.402503   0.001785
    12  O   -0.673698   0.035470
    13  H    0.410778   0.001242
    14  H    0.407094   0.000488
    15  H    0.401155   0.001633
    16  H    0.411964   0.001922
    17  H    0.401155   0.001633
    18  H    0.407094   0.000488
    19  H    0.411850   0.001847
 Sum of Mulliken charges =   2.00000   4.00000

 Dipole moment (field-independent basis, Debye):
    X=             -0.0000    Y=              0.0000    Z=             -0.0000  Tot=              0.0000
 Quadrupole moment (field-independent basis, Debye-Ang):
   XX=            -17.4930   YY=            -14.7197   ZZ=            -15.2977
   XY=              0.0702   XZ=             -0.2658   YZ=             -0.1383

 Normal termination of Gaussian 16 at Thu Mar  6 18:08:31 2025.
