 Gaussian 16, Revision C.02,

 ----------------------------------------------------------------------
 #p n12 6-31+G(2df,p) opt=(cartesian,calcall,maxcycles=500) freq scf=(m
 axcycles=500,xqc,maxconventional=50) IOp(3/174=1000000) IOp(3/175=2391
 600) IOp(3/176=1349300)
 ----------------------------------------------------------------------

 -----
 Title
 -----
 Symbolic Z-matrix:
 Charge =  2 Multiplicity = 5

 SCF Done:  E(UN12) =  -1721.65922862     A.U. after   26 cycles
 SCF Done:  E(UN12) =  -1721.68854111     A.U. after   23 cycles
 SCF Done:  E(UN12) =  -1721.73563403     A.U. after   23 cycles
 SCF Done:  E(UN12) =  -1721.77885292     A.U. after   22 cycles
 SCF Done:  E(UN12) =  -1721.78515925     A.U. after   20 cycles
 SCF Done:  E(UN12) =  -1721.80530623     A.U. after   17 cycles
 SCF Done:  E(UN12) =  -1721.82477701     A.U. after   18 cycles
 SCF Done:  E(UN12) =  -1721.84584654     A.U. after   19 cycles
 SCF Done:  E(UN12) =  -1721.85384283     A.U. after   20 cycles
 SCF Done:  E(UN12) =  -1721.86256776     A.U. after   19 cycles
 SCF Done:  E(UN12) =  -1721.87694193     A.U. after   11 cycles
 SCF Done:  E(UN12) =  -1721.87694196     A.U. after   13 cycles
 SCF Done:  E(UN12) =  -1721.87694255     A.U. after    8 cycles
 SCF Done:  E(UN12) =  -1721.87694204     A.U. after   11 cycles
 SCF Done:  E(UN12) =  -1721.87694191     A.U. after   13 cycles
 SCF Done:  E(UN12) =  -1721.87694257     A.U. after    9 cycles
 SCF Done:  E(UN12) =  -1721.87694194     A.U. after   13 cycles
 SCF Done:  E(UN12) =  -1721.87694205     A.U. after   11 cycles
 Optimization completed.
    -- Stationary point found.
 Normal termination of Gaussian 16 at Wed Mar  5 21:47:39 2025.

 ----------------------------------------------------------------------
 #P Geom=AllCheck Guess=TCheck SCRF=Check Test GenChk UN12/6-31+G(2df,p
 ) Freq
 ----------------------------------------------------------------------

 Structure from the checkpoint file:  "Fe_2_n12.chk"
 -----
 Title
 -----
 Charge =  2 Multiplicity = 5

 SCF Done:  E(UN12) =  -1721.87694205     A.U. after    2 cycles

  Exact polarizability:      59.244       0.016      59.090      -0.017       0.735      60.703
 Approx polarizability:      82.590       0.057      81.748      -0.017       1.088      86.581

                      1                      2                      3
                      A                      A                      A
 Frequencies --     80.4888                89.2758                91.5483
 Red. masses --      4.9977                 3.2260                 4.5090
 Frc consts  --      0.0191                 0.0151                 0.0223
 IR Inten    --      3.6683                 0.0006                 2.7818

                      4                      5                      6
                      A                      A                      A
 Frequencies --     96.0607                99.9534               117.5514
 Red. masses --      5.7457                 3.5253                 2.7785
 Frc consts  --      0.0312                 0.0208                 0.0226
 IR Inten    --      7.2142                 0.0001                 0.5727

                      7                      8                      9
                      A                      A                      A
 Frequencies --    123.5856               133.0839               137.8959
 Red. masses --      4.6480                 5.3475                 1.2951
 Frc consts  --      0.0418                 0.0558                 0.0145
 IR Inten    --      0.0000                 2.4819                 0.0019

                     10                     11                     12
                      A                      A                      A
 Frequencies --    139.5599               171.0403               200.2235
 Red. masses --      5.1851                 5.6017                 1.1197
 Frc consts  --      0.0595                 0.0966                 0.0264
 IR Inten    --      0.4006                 0.0000                 5.9717

                     13                     14                     15
                      A                      A                      A
 Frequencies --    249.4959               252.9651               292.7493
 Red. masses --      1.1466                 2.7476                 1.2736
 Frc consts  --      0.0421                 0.1036                 0.0643
 IR Inten    --      2.7226                 0.0001                 0.0019

                     16                     17                     18
                      A                      A                      A
 Frequencies --    304.5663               305.3348               320.9646
 Red. masses --      1.0549                 5.6060                 2.5484
 Frc consts  --      0.0577                 0.3079                 0.1547
 IR Inten    --      0.0330                 5.1659                69.2430

                     19                     20                     21
                      A                      A                      A
 Frequencies --    342.9380               344.5177               349.7953
 Red. masses --      3.3121                 5.9477                 1.0988
 Frc consts  --      0.2295                 0.4159                 0.0792
 IR Inten    --     41.6233                 0.0018                 0.0001

                     22                     23                     24
                      A                      A                      A
 Frequencies --    380.5170               385.6750               394.5801
 Red. masses --      1.3061                 1.0966                 1.3321
 Frc consts  --      0.1114                 0.0961                 0.1222
 IR Inten    --    332.8057                 0.0108               310.2697

                     25                     26                     27
                      A                      A                      A
 Frequencies --    399.9615               424.2521               429.9360
 Red. masses --      1.1317                 1.1696                 1.0358
 Frc consts  --      0.1067                 0.1240                 0.1128
 IR Inten    --      0.0019               353.4719                21.3623

                     28                     29                     30
                      A                      A                      A
 Frequencies --    507.1764               529.6852               534.8723
 Red. masses --      1.1433                 1.2252                 1.1578
 Frc consts  --      0.1733                 0.2025                 0.1952
 IR Inten    --      0.0037               278.8898                 0.0025

                     31                     32                     33
                      A                      A                      A
 Frequencies --    537.9719               551.2794               558.3827
 Red. masses --      1.1523                 1.2301                 1.2410
 Frc consts  --      0.1965                 0.2203                 0.2280
 IR Inten    --      0.0147               285.5841               222.7367

                     34                     35                     36
                      A                      A                      A
 Frequencies --   1627.8161              1628.3341              1630.1525
 Red. masses --      1.0912                 1.0945                 1.0924
 Frc consts  --      1.7036                 1.7098                 1.7104
 IR Inten    --    210.1831                 0.0111               201.4304

                     37                     38                     39
                      A                      A                      A
 Frequencies --   1632.3876              1635.0773              1642.7363
 Red. masses --      1.0921                 1.0908                 1.0843
 Frc consts  --      1.7145                 1.7182                 1.7241
 IR Inten    --      0.0114               194.1241                 0.0042

                     40                     41                     42
                      A                      A                      A
 Frequencies --   3797.1608              3798.6361              3805.4239
 Red. masses --      1.0430                 1.0430                 1.0425
 Frc consts  --      8.8603                 8.8676                 8.8949
 IR Inten    --    228.2191                 0.0006                 0.0046

                     43                     44                     45
                      A                      A                      A
 Frequencies --   3809.3343              3810.6458              3814.5581
 Red. masses --      1.0432                 1.0434                 1.0438
 Frc consts  --      8.9189                 8.9267                 8.9490
 IR Inten    --    242.0388               204.7620                 0.0060

                     46                     47                     48
                      A                      A                      A
 Frequencies --   3895.0985              3895.7134              3907.5497
 Red. masses --      1.0855                 1.0855                 1.0852
 Frc consts  --      9.7035                 9.7068                 9.7625
 IR Inten    --      0.0017               366.9443                 9.3984

                     49                     50                     51
                      A                      A                      A
 Frequencies --   3907.7812              3908.4032              3909.0733
 Red. masses --      1.0852                 1.0853                 1.0854
 Frc consts  --      9.7639                 9.7678                 9.7719
 IR Inten    --    268.7947                 0.2001               440.9610

 - Thermochemistry -
 -------------------
 Temperature   298.150 Kelvin.  Pressure   1.00000 Atm.
 Atom     1 has atomic number 26 and mass  55.93494

 Molecular mass:   163.99833 amu.
 Principal axes and moments of inertia in atomic units:
                           1         2         3
     Eigenvalues --  1219.346631224.711931254.36679
           X            0.99996   0.00892  -0.00053
           Y           -0.00891   0.99994   0.00555
           Z            0.00058  -0.00554   0.99998
 This molecule is an asymmetric top.
 Rotational symmetry number  1.
 Warning -- assumption of classical behavior for rotation
           may cause significant error
 Rotational temperatures (Kelvin)      0.07103     0.07072     0.06905
 Rotational constants (GHZ):           1.48009     1.47360     1.43877
 Zero-point vibrational energy     394371.5 (Joules/Mol)
                                   94.25705 (Kcal/Mol)
 Warning -- explicit consideration of  33 degrees of freedom as
           vibrations may cause significant error
 Vibrational temperatures:    115.81   128.45   131.72   138.21   143.81
          (Kelvin)            169.13   177.81   191.48   198.40   200.80
                              246.09   288.08   358.97   363.96   421.20
                              438.20   439.31   461.80   493.41   495.68
                              503.28   547.48   554.90   567.71   575.46
                              610.40   618.58   729.71   762.10   769.56
                              774.02   793.17   803.39  2342.06  2342.81
                             2345.43  2348.64  2352.51  2363.53  5463.27
                             5465.39  5475.16  5480.78  5482.67  5488.30
                             5604.18  5605.06  5622.09  5622.43  5623.32
                             5624.28

 Zero-point correction=                           0.150208 (Hartree/Particle)
 Thermal correction to Energy=                    0.168129
 Thermal correction to Enthalpy=                  0.169073
 Thermal correction to Gibbs Free Energy=         0.106060
 Sum of electronic and zero-point Energies=          -1721.726734
 Sum of electronic and thermal Energies=             -1721.708813
 Sum of electronic and thermal Enthalpies=           -1721.707869
 Sum of electronic and thermal Free Energies=        -1721.770882

                     E (Thermal)             CV                S
                      KCal/Mol        Cal/Mol-Kelvin    Cal/Mol-Kelvin
 Total                  105.502             60.074            132.622
 Electronic               0.000              0.000              3.198
 Translational            0.889              2.981             41.193
 Rotational               0.889              2.981             29.017
 Vibrational            103.725             54.112             59.214
 Vibration     1          0.600              1.962              3.879
 Vibration     2          0.602              1.957              3.676
 Vibration     3          0.602              1.955              3.627
 Vibration     4          0.603              1.952              3.533
 Vibration     5          0.604              1.949              3.455
 Vibration     6          0.608              1.935              3.140
 Vibration     7          0.610              1.929              3.044
 Vibration     8          0.613              1.920              2.901
 Vibration     9          0.614              1.915              2.833
 Vibration    10          0.615              1.914              2.810
 Vibration    11          0.626              1.878              2.424
 Vibration    12          0.638              1.840              2.131
 Vibration    13          0.662              1.764              1.734
 Vibration    14          0.664              1.758              1.710
 Vibration    15          0.688              1.687              1.458
 Vibration    16          0.695              1.665              1.392
 Vibration    17          0.696              1.664              1.387
 Vibration    18          0.706              1.633              1.305
 Vibration    19          0.722              1.590              1.198
 Vibration    20          0.723              1.586              1.191
 Vibration    21          0.727              1.576              1.167
 Vibration    22          0.750              1.512              1.037
 Vibration    23          0.754              1.501              1.017
 Vibration    24          0.762              1.482              0.983
 Vibration    25          0.766              1.470              0.963
 Vibration    26          0.786              1.417              0.878
 Vibration    27          0.791              1.405              0.859
 Vibration    28          0.862              1.234              0.640
 Vibration    29          0.885              1.184              0.588
 Vibration    30          0.890              1.173              0.576
 Vibration    31          0.893              1.166              0.570
 Vibration    32          0.907              1.137              0.542
 Vibration    33          0.914              1.121              0.527

 Normal termination of Gaussian 16 at Wed Mar  5 21:49:15 2025.
 Gaussian 16:  ES64L-G16RevC.02  7-Dec-2021

 ----------------------------------------------------------------------
 #p n12 scrf=(cpcm,solvent=water) geom=allcheck guess=read chkbasis IOp
 (3/174=1000000) IOp(3/175=2391600) IOp(3/176=1349300)
 ----------------------------------------------------------------------

 Structure from the checkpoint file:  "Fe_2_n12.chk_solvated"
 -----
 Title
 -----
 Charge =  2 Multiplicity = 5

                         Standard orientation:
 ---------------------------------------------------------------------
 Center     Atomic      Atomic             Coordinates (Angstroms)
 Number     Number       Type             X           Y           Z
 ---------------------------------------------------------------------
      1         26           0       -0.000249   -0.000026    0.000021
      2          8           0       -0.096913    1.814723   -1.062513
      3          1           0       -0.110131    1.906122   -2.015336
      4          8           0        2.124497    0.095592   -0.027077
      5          1           0        2.720704   -0.413290    0.522243
      6          8           0       -0.025102    1.090199    1.768252
      7          1           0       -0.806676    1.378112    2.241343
      8          8           0        0.096916   -1.814796    1.062412
      9          1           0        0.131884   -2.692683    0.682399
     10          8           0       -2.124701   -0.095363    0.027070
     11          1           0       -2.720735    0.411919   -0.523917
     12          8           0        0.025928   -1.090297   -1.768183
     13          1           0        0.808348   -1.377638   -2.240225
     14          1           0       -0.738739   -1.450429   -2.218903
     15          1           0        2.659753    0.654972   -0.589923
     16          1           0       -0.134646    2.692520   -0.682564
     17          1           0       -2.660174   -0.652943    0.591497
     18          1           0        0.740432    1.449798    2.217925
     19          1           0        0.111446   -1.906232    2.015212
 ---------------------------------------------------------------------

 SCF Done:  E(UN12) =  -1722.15530203     A.U. after   18 cycles

 The electronic state is 5-A.
 Alpha  occ. eigenvalues -- -254.42569 -29.66547 -25.85922 -25.83009 -25.82987
 Alpha  occ. eigenvalues --  -18.83659 -18.83658 -18.83332 -18.83331 -18.82811
 Alpha  occ. eigenvalues --  -18.82808  -3.35354  -2.24608  -2.18714  -2.18681
 Alpha  occ. eigenvalues --   -0.98687  -0.98289  -0.98042  -0.97971  -0.97489
 Alpha  occ. eigenvalues --   -0.97449  -0.54453  -0.54319  -0.54238  -0.54157
 Alpha  occ. eigenvalues --   -0.53540  -0.53523  -0.47351  -0.44899  -0.43918
 Alpha  occ. eigenvalues --   -0.43191  -0.42875  -0.42170  -0.34597  -0.34566
 Alpha  occ. eigenvalues --   -0.33101  -0.32720  -0.32549  -0.32196  -0.28378
 Alpha  occ. eigenvalues --   -0.28105  -0.24328  -0.23877  -0.22760
 Alpha virt. eigenvalues --   -0.07109  -0.03546  -0.03483  -0.03416   0.02240
 Alpha virt. eigenvalues --    0.02293   0.02551   0.06337   0.06621   0.06847
 Alpha virt. eigenvalues --    0.06876   0.07072   0.07676   0.12169   0.12413

  Beta  occ. eigenvalues -- -254.42186 -29.58317 -25.78440 -25.76799 -25.76786
  Beta  occ. eigenvalues --  -18.83449 -18.83449 -18.83151 -18.83150 -18.82650
  Beta  occ. eigenvalues --  -18.82647  -3.20383  -2.07422  -2.05580  -2.05563
  Beta  occ. eigenvalues --   -0.98435  -0.98017  -0.97809  -0.97718  -0.97295
  Beta  occ. eigenvalues --   -0.97243  -0.54248  -0.54129  -0.54024  -0.53977
  Beta  occ. eigenvalues --   -0.53370  -0.53363  -0.46847  -0.43013  -0.42733
  Beta  occ. eigenvalues --   -0.42436  -0.42216  -0.41774  -0.33217  -0.33164
  Beta  occ. eigenvalues --   -0.32673  -0.32404  -0.32021  -0.31922  -0.17582
  Beta virt. eigenvalues --   -0.16477  -0.16124  -0.12124  -0.09670  -0.06847
  Beta virt. eigenvalues --   -0.03304  -0.03223  -0.03185   0.02311   0.03177
  Beta virt. eigenvalues --    0.03349   0.06636   0.06892   0.07083   0.07182

 Mulliken charges and spin densities:
               1          2
     1  Fe   0.979822   3.676585
     2  O   -0.632578   0.046925
     3  H    0.402161   0.004045
     4  O   -0.630306   0.038372
     5  H    0.397121   0.003359
     6  O   -0.632027   0.055726
     7  H    0.403037   0.002790
     8  O   -0.632564   0.046932
     9  H    0.402394   0.004309
    10  O   -0.630103   0.038455
    11  H    0.397097   0.003353
    12  O   -0.632031   0.055721
    13  H    0.403018   0.002786
    14  H    0.403064   0.002785
    15  H    0.397155   0.003364
    16  H    0.402394   0.004309
    17  H    0.397138   0.003359
    18  H    0.403045   0.002780
    19  H    0.402164   0.004045
 Sum of Mulliken charges =   2.00000   4.00000

 Dipole moment (field-independent basis, Debye):
    X=             -0.0014    Y=              0.0000    Z=             -0.0002  Tot=              0.0014
 Quadrupole moment (field-independent basis, Debye-Ang):
   XX=            -16.1382   YY=            -15.7231   ZZ=            -15.0660
   XY=             -0.0112   XZ=             -0.0029   YZ=              0.1273

 Normal termination of Gaussian 16 at Wed Mar  5 21:50:25 2025.
