 Gaussian 16, Revision C.02,

 ----------------------------------------------------------------------
 #p X3LYP 6-31+G(2df,p) opt=(cartesian,calcall,maxcycles=500,loose) fre
 q scf=(maxcycles=500,xqc,maxconventional=50) IOp(3/174=1000000) IOp(3/
 175=299000) IOp(3/176=1000000)
 ----------------------------------------------------------------------

 -----
 Title
 -----
 Symbolic Z-matrix:
 Charge =  2 Multiplicity = 5

 SCF Done:  E(UX3LYP) =  -1721.31467641     A.U. after   27 cycles
 SCF Done:  E(UX3LYP) =  -1721.34901010     A.U. after   26 cycles
 SCF Done:  E(UX3LYP) =  -1721.40438587     A.U. after   25 cycles
 SCF Done:  E(UX3LYP) =  -1721.45683503     A.U. after   27 cycles
 SCF Done:  E(UX3LYP) =  -1721.46533862     A.U. after   26 cycles
 SCF Done:  E(UX3LYP) =  -1721.48831238     A.U. after   24 cycles
 SCF Done:  E(UX3LYP) =  -1721.51373193     A.U. after   26 cycles
 SCF Done:  E(UX3LYP) =  -1721.54081853     A.U. after   27 cycles
 SCF Done:  E(UX3LYP) =  -1721.55798161     A.U. after   33 cycles
 SCF Done:  E(UX3LYP) =  -1721.56517617     A.U. after   26 cycles
 SCF Done:  E(UX3LYP) =  -1721.57798544     A.U. after   25 cycles
 SCF Done:  E(UX3LYP) =  -1721.57782862     A.U. after   26 cycles
 SCF Done:  E(UX3LYP) =  -1721.57795165     A.U. after   30 cycles
 SCF Done:  E(UX3LYP) =  -1721.57811191     A.U. after   23 cycles
 SCF Done:  E(UX3LYP) =  -1721.57844618     A.U. after   25 cycles
 SCF Done:  E(UX3LYP) =  -1721.57864463     A.U. after   25 cycles
 SCF Done:  E(UX3LYP) =  -1721.57871427     A.U. after   25 cycles
 SCF Done:  E(UX3LYP) =  -1721.57872883     A.U. after   24 cycles
 Optimization completed.
    -- Stationary point found.
 Normal termination of Gaussian 16 at Wed Mar  5 20:50:39 2025.

 ----------------------------------------------------------------------
 #P Geom=AllCheck Guess=TCheck SCRF=Check Test GenChk UX3LYP/6-31+G(2df
 ,p) Freq
 ----------------------------------------------------------------------

 Structure from the checkpoint file:  "Fe_2_X3LYP.chk"
 -----
 Title
 -----
 Charge =  2 Multiplicity = 5

 SCF Done:  E(UX3LYP) =  -1721.57872883     A.U. after    1 cycles

  Exact polarizability:      56.422      -0.304      56.211       0.170       0.220      57.187
 Approx polarizability:      68.064      -0.688      67.582       0.167       0.143      70.139

                      1                      2                      3
                      A                      A                      A
 Frequencies --     78.4713                80.3158                87.5412
 Red. masses --      5.0260                 3.2627                 4.7521
 Frc consts  --      0.0182                 0.0124                 0.0215
 IR Inten    --      4.3981                 0.0263                 3.1208

                      4                      5                      6
                      A                      A                      A
 Frequencies --     91.1066                95.9627               112.0078
 Red. masses --      5.5948                 4.9814                 4.8195
 Frc consts  --      0.0274                 0.0270                 0.0356
 IR Inten    --      7.7403                 0.0176                 0.0054

                      7                      8                      9
                      A                      A                      A
 Frequencies --    119.1579               127.3799               132.3248
 Red. masses --      3.5153                 5.4209                 5.1958
 Frc consts  --      0.0294                 0.0518                 0.0536
 IR Inten    --      0.8539                 2.1937                 0.4712

                     10                     11                     12
                      A                      A                      A
 Frequencies --    146.3284               159.5070               198.6735
 Red. masses --      1.1805                 5.5264                 1.0640
 Frc consts  --      0.0149                 0.0828                 0.0247
 IR Inten    --      0.0668                 0.0011                 2.5902

                     13                     14                     15
                      A                      A                      A
 Frequencies --    238.2517               244.5950               289.8567
 Red. masses --      3.3510                 1.2201                 1.1201
 Frc consts  --      0.1121                 0.0430                 0.0554
 IR Inten    --      0.0369                 1.8311                 0.1092

                     16                     17                     18
                      A                      A                      A
 Frequencies --    290.5437               300.5247               308.9554
 Red. masses --      1.0553                 2.6002                 5.0504
 Frc consts  --      0.0525                 0.1384                 0.2840
 IR Inten    --      0.2298                49.3740                 7.2581

                     19                     20                     21
                      A                      A                      A
 Frequencies --    321.1087               332.6384               342.1848
 Red. masses --      3.9078                 5.7809                 1.0926
 Frc consts  --      0.2374                 0.3769                 0.0754
 IR Inten    --     25.9912                 0.0140                 0.8267

                     22                     23                     24
                      A                      A                      A
 Frequencies --    362.3497               373.3736               379.9719
 Red. masses --      1.2627                 1.1218                 1.1151
 Frc consts  --      0.0977                 0.0921                 0.0949
 IR Inten    --    364.0639                52.9834                 0.7895

                     25                     26                     27
                      A                      A                      A
 Frequencies --    383.8959               400.8944               418.4815
 Red. masses --      1.2122                 1.2070                 1.0276
 Frc consts  --      0.1053                 0.1143                 0.1060
 IR Inten    --    283.9620               424.4635                13.6329

                     28                     29                     30
                      A                      A                      A
 Frequencies --    505.4701               526.0641               526.9197
 Red. masses --      1.1479                 1.1582                 1.1810
 Frc consts  --      0.1728                 0.1888                 0.1932
 IR Inten    --      6.3791                 1.7928               113.8660

                     31                     32                     33
                      A                      A                      A
 Frequencies --    529.9562               548.3453               552.4248
 Red. masses --      1.1880                 1.2155                 1.2280
 Frc consts  --      0.1966                 0.2153                 0.2208
 IR Inten    --    142.5984               280.4830               232.3991

                     34                     35                     36
                      A                      A                      A
 Frequencies --   1642.5330              1643.9620              1644.7232
 Red. masses --      1.0953                 1.0911                 1.0913
 Frc consts  --      1.7410                 1.7374                 1.7393
 IR Inten    --      2.9407               231.2606               222.9752

                     37                     38                     39
                      A                      A                      A
 Frequencies --   1646.1139              1648.6031              1655.0835
 Red. masses --      1.0920                 1.0901                 1.0844
 Frc consts  --      1.7434                 1.7456                 1.7502
 IR Inten    --     11.5660               203.6033                 2.9040

                     40                     41                     42
                      A                      A                      A
 Frequencies --   3752.7419              3754.6582              3755.5248
 Red. masses --      1.0439                 1.0439                 1.0439
 Frc consts  --      8.6621                 8.6708                 8.6746
 IR Inten    --     86.3479               123.0605               110.5327

                     43                     44                     45
                      A                      A                      A
 Frequencies --   3759.8362              3761.3612              3765.5585
 Red. masses --      1.0441                 1.0441                 1.0448
 Frc consts  --      8.6963                 8.7037                 8.7287
 IR Inten    --    125.3851               208.0905                30.6046

                     46                     47                     48
                      A                      A                      A
 Frequencies --   3841.1600              3843.1812              3844.3224
 Red. masses --      1.0845                 1.0848                 1.0848
 Frc consts  --      9.4280                 9.4404                 9.4462
 IR Inten    --    169.8600               107.4293               286.1821

                     49                     50                     51
                      A                      A                      A
 Frequencies --   3848.6591              3850.1720              3851.0091
 Red. masses --      1.0846                 1.0845                 1.0846
 Frc consts  --      9.4653                 9.4720                 9.4771
 IR Inten    --    149.6185               168.1611               269.8140

 - Thermochemistry -
 -------------------
 Temperature   298.150 Kelvin.  Pressure   1.00000 Atm.
 Atom     1 has atomic number 26 and mass  55.93494

 Molecular mass:   163.99833 amu.
 Principal axes and moments of inertia in atomic units:
                           1         2         3
     Eigenvalues --  1272.826551274.379611306.23926
           X            0.97831  -0.20717   0.00067
           Y            0.20716   0.97830   0.00281
           Z           -0.00124  -0.00262   1.00000
 This molecule is an asymmetric top.
 Rotational symmetry number  1.
 Warning -- assumption of classical behavior for rotation
           may cause significant error
 Rotational temperatures (Kelvin)      0.06805     0.06797     0.06631
 Rotational constants (GHZ):           1.41790     1.41617     1.38163
 Zero-point vibrational energy     389472.9 (Joules/Mol)
                                   93.08626 (Kcal/Mol)
 Warning -- explicit consideration of  33 degrees of freedom as
           vibrations may cause significant error
 Vibrational temperatures:    112.90   115.56   125.95   131.08   138.07
          (Kelvin)            161.15   171.44   183.27   190.39   210.53
                              229.49   285.85   342.79   351.92   417.04
                              418.03   432.39   444.52   462.00   478.59
                              492.33   521.34   537.20   546.69   552.34
                              576.80   602.10   727.26   756.89   758.12
                              762.49   788.95   794.82  2363.24  2365.29
                             2366.39  2368.39  2371.97  2381.30  5399.36
                             5402.12  5403.36  5409.57  5411.76  5417.80
                             5526.57  5529.48  5531.12  5537.36  5539.54
                             5540.74

 Zero-point correction=                           0.148342 (Hartree/Particle)
 Thermal correction to Energy=                    0.166589
 Thermal correction to Enthalpy=                  0.167533
 Thermal correction to Gibbs Free Energy=         0.103579
 Sum of electronic and zero-point Energies=          -1721.430386
 Sum of electronic and thermal Energies=             -1721.412140
 Sum of electronic and thermal Enthalpies=           -1721.411195
 Sum of electronic and thermal Free Energies=        -1721.475150

                     E (Thermal)             CV                S
                      KCal/Mol        Cal/Mol-Kelvin    Cal/Mol-Kelvin
 Total                  104.536             60.556            134.603
 Electronic               0.000              0.000              3.198
 Translational            0.889              2.981             41.193
 Rotational               0.889              2.981             29.140
 Vibrational            102.759             54.594             61.073
 Vibration     1          0.600              1.964              3.929
 Vibration     2          0.600              1.963              3.883
 Vibration     3          0.601              1.958              3.714
 Vibration     4          0.602              1.956              3.636
 Vibration     5          0.603              1.952              3.535
 Vibration     6          0.607              1.940              3.234
 Vibration     7          0.609              1.933              3.114
 Vibration     8          0.611              1.926              2.985
 Vibration     9          0.612              1.921              2.912
 Vibration    10          0.617              1.907              2.719
 Vibration    11          0.621              1.892              2.556
 Vibration    12          0.637              1.842              2.145
 Vibration    13          0.656              1.782              1.816
 Vibration    14          0.660              1.772              1.769
 Vibration    15          0.686              1.693              1.475
 Vibration    16          0.687              1.691              1.471
 Vibration    17          0.693              1.673              1.414
 Vibration    18          0.698              1.657              1.368
 Vibration    19          0.707              1.633              1.304
 Vibration    20          0.715              1.610              1.247
 Vibration    21          0.721              1.591              1.202
 Vibration    22          0.736              1.550              1.112
 Vibration    23          0.745              1.527              1.066
 Vibration    24          0.750              1.513              1.039
 Vibration    25          0.753              1.505              1.024
 Vibration    26          0.767              1.468              0.959
 Vibration    27          0.781              1.430              0.897
 Vibration    28          0.861              1.238              0.645
 Vibration    29          0.881              1.192              0.596
 Vibration    30          0.882              1.190              0.594
 Vibration    31          0.885              1.184              0.587
 Vibration    32          0.904              1.143              0.548
 Vibration    33          0.908              1.134              0.539

 Normal termination of Gaussian 16 at Wed Mar  5 20:52:29 2025.
 Gaussian 16:  ES64L-G16RevC.02  7-Dec-2021

 ----------------------------------------------------------------------
 #p X3LYP scrf=(cpcm,solvent=water) geom=allcheck guess=read chkbasis I
 Op(3/174=1000000) IOp(3/175=299000) IOp(3/176=1000000)
 ----------------------------------------------------------------------

 Structure from the checkpoint file:  "Fe_2_X3LYP.chk_solvated"
 -----
 Title
 -----
 Charge =  2 Multiplicity = 5

                         Standard orientation:
 ---------------------------------------------------------------------
 Center     Atomic      Atomic             Coordinates (Angstroms)
 Number     Number       Type             X           Y           Z
 ---------------------------------------------------------------------
      1         26           0       -0.001840    0.001305    0.000111
      2          8           0        1.069080    1.472135   -1.147014
      3          1           0        1.127334    1.512237   -2.111522
      4          8           0        1.779807   -1.231523    0.066659
      5          1           0        1.924409   -2.004314    0.629799
      6          8           0        0.626325    1.001450    1.767447
      7          1           0        0.174912    1.738976    2.201651
      8          8           0       -1.065273   -1.475214    1.146665
      9          1           0       -1.592096   -2.206827    0.795907
     10          8           0       -1.781833    1.231601   -0.067011
     11          1           0       -1.936531    1.989668   -0.648295
     12          8           0       -0.623460   -1.002355   -1.767408
     13          1           0       -0.162650   -1.735434   -2.199026
     14          1           0       -1.439786   -0.843558   -2.261782
     15          1           0        2.579384   -1.116499   -0.464950
     16          1           0        1.579182    2.215924   -0.797953
     17          1           0       -2.568829    1.135785    0.487952
     18          1           0        1.442248    0.832712    2.259281
     19          1           0       -1.116916   -1.521354    2.111336
 ---------------------------------------------------------------------

 SCF Done:  E(UX3LYP) =  -1721.85435879     A.U. after   24 cycles

 The electronic state is 5-A.
 Alpha  occ. eigenvalues -- -256.25383 -30.17212 -26.04117 -26.01184 -26.01015
 Alpha  occ. eigenvalues --  -19.24957 -19.24957 -19.24689 -19.24686 -19.24314
 Alpha  occ. eigenvalues --  -19.24278  -3.61633  -2.42943  -2.36894  -2.36546
 Alpha  occ. eigenvalues --   -1.08875  -1.08476  -1.08248  -1.08179  -1.07797
 Alpha  occ. eigenvalues --   -1.07751  -0.60016  -0.59866  -0.59814  -0.59701
 Alpha  occ. eigenvalues --   -0.59247  -0.59193  -0.53600  -0.52049  -0.51086
 Alpha  occ. eigenvalues --   -0.49324  -0.48966  -0.48398  -0.42195  -0.42149
 Alpha  occ. eigenvalues --   -0.38991  -0.38915  -0.38598  -0.38189  -0.36745
 Alpha  occ. eigenvalues --   -0.36495  -0.33765  -0.32957  -0.32374
 Alpha virt. eigenvalues --   -0.05292  -0.01098  -0.01036  -0.01012   0.04028
 Alpha virt. eigenvalues --    0.04667   0.04768   0.08802   0.09021   0.09130
 Alpha virt. eigenvalues --    0.09251   0.09375   0.09780   0.13859   0.14787

  Beta  occ. eigenvalues -- -256.25273 -30.09510 -25.96615 -25.95262 -25.95182
  Beta  occ. eigenvalues --  -19.24819 -19.24818 -19.24571 -19.24567 -19.24200
  Beta  occ. eigenvalues --  -19.24166  -3.42344  -2.18829  -2.18153  -2.18097
  Beta  occ. eigenvalues --   -1.08640  -1.08226  -1.08036  -1.07944  -1.07607
  Beta  occ. eigenvalues --   -1.07546  -0.59857  -0.59742  -0.59600  -0.59570
  Beta  occ. eigenvalues --   -0.59089  -0.59082  -0.52876  -0.48782  -0.48641
  Beta  occ. eigenvalues --   -0.48460  -0.47989  -0.47926  -0.38970  -0.38876
  Beta  occ. eigenvalues --   -0.38532  -0.38341  -0.38142  -0.37946  -0.25079
  Beta virt. eigenvalues --   -0.08781  -0.08241  -0.05100  -0.04978  -0.02421
  Beta virt. eigenvalues --   -0.01033  -0.00972  -0.00961   0.04235   0.05348
  Beta virt. eigenvalues --    0.05625   0.08957   0.09176   0.09188   0.09448

 Mulliken charges and spin densities:
               1          2
     1  Fe   1.180313   3.847900
     2  O   -0.679981   0.017968
     3  H    0.408401   0.002863
     4  O   -0.677310   0.018097
     5  H    0.405066   0.002360
     6  O   -0.680184   0.024850
     7  H    0.409724   0.002120
     8  O   -0.680067   0.017989
     9  H    0.408976   0.003091
    10  O   -0.675943   0.018616
    11  H    0.405105   0.002330
    12  O   -0.680252   0.024863
    13  H    0.409608   0.002095
    14  H    0.409711   0.002125
    15  H    0.404949   0.002359
    16  H    0.408911   0.003094
    17  H    0.404905   0.002307
    18  H    0.409629   0.002103
    19  H    0.408439   0.002870
 Sum of Mulliken charges =   2.00000   4.00000

 Dipole moment (field-independent basis, Debye):
    X=             -0.0121    Y=              0.0199    Z=              0.0077  Tot=              0.0245
 Quadrupole moment (field-independent basis, Debye-Ang):
   XX=            -16.1603   YY=            -16.0536   ZZ=            -15.4514
   XY=              0.2096   XZ=              0.0422   YZ=              0.1369

 Normal termination of Gaussian 16 at Wed Mar  5 20:53:15 2025.
