 Gaussian 16, Revision C.02,

 ----------------------------------------------------------------------
 #p OLYP 6-31+G(2df,p) opt=(cartesian,calcall,maxcycles=500) freq scf=(
 maxcycles=500,xqc,maxconventional=50) IOp(3/174=1000000) IOp(3/175=176
 4000) IOp(3/176=806000)
 ----------------------------------------------------------------------

 -----
 Title
 -----
 Symbolic Z-matrix:
 Charge =  2 Multiplicity = 5

 SCF Done:  E(UO-LYP) =  -1721.63636593     A.U. after   23 cycles
 SCF Done:  E(UO-LYP) =  -1721.67088898     A.U. after   18 cycles
 SCF Done:  E(UO-LYP) =  -1721.72658009     A.U. after   19 cycles
 SCF Done:  E(UO-LYP) =  -1721.77921857     A.U. after   20 cycles
 SCF Done:  E(UO-LYP) =  -1721.78800414     A.U. after   20 cycles
 SCF Done:  E(UO-LYP) =  -1721.81310400     A.U. after   19 cycles
 SCF Done:  E(UO-LYP) =  -1721.83702640     A.U. after   20 cycles
 SCF Done:  E(UO-LYP) =  -1721.86288913     A.U. after   19 cycles
 SCF Done:  E(UO-LYP) =  -1721.88496858     A.U. after   19 cycles
 SCF Done:  E(UO-LYP) =  -1721.86368336     A.U. after   21 cycles
 SCF Done:  E(UO-LYP) =  -1721.90877681     A.U. after   17 cycles
 SCF Done:  E(UO-LYP) =  -1721.90877653     A.U. after   16 cycles
 SCF Done:  E(UO-LYP) =  -1721.90877908     A.U. after   15 cycles
 SCF Done:  E(UO-LYP) =  -1721.90877967     A.U. after   13 cycles
 SCF Done:  E(UO-LYP) =  -1721.90877805     A.U. after   15 cycles
 SCF Done:  E(UO-LYP) =  -1721.90878056     A.U. after   16 cycles
 SCF Done:  E(UO-LYP) =  -1721.90877738     A.U. after   16 cycles
 SCF Done:  E(UO-LYP) =  -1721.90877961     A.U. after   14 cycles
 Optimization completed.
    -- Stationary point found.
 Normal termination of Gaussian 16 at Wed Mar  5 20:55:25 2025.

 ----------------------------------------------------------------------
 #P Geom=AllCheck Guess=TCheck SCRF=Check Test GenChk UOLYP/6-31+G(2df,
 p) Freq
 ----------------------------------------------------------------------

 Structure from the checkpoint file:  "Fe_2_OLYP.chk"
 -----
 Title
 -----
 Charge =  2 Multiplicity = 5

 SCF Done:  E(UO-LYP) =  -1721.90877961     A.U. after    1 cycles

  Exact polarizability:      62.117      -0.049      61.335      -0.025      -0.334      63.193
 Approx polarizability:      85.371      -0.118      83.511      -0.028      -0.122      88.412

                      1                      2                      3
                      A                      A                      A
 Frequencies --     75.4469                79.5112                83.6098
 Red. masses --      5.9863                 4.5982                 7.8718
 Frc consts  --      0.0201                 0.0171                 0.0324
 IR Inten    --      7.0165                 0.0004                20.0855

                      4                      5                      6
                      A                      A                      A
 Frequencies --     86.7525                90.0049               112.0179
 Red. masses --      4.8442                 5.9442                 4.7439
 Frc consts  --      0.0215                 0.0284                 0.0351
 IR Inten    --      3.8917                 0.0002                 0.9255

                      7                      8                      9
                      A                      A                      A
 Frequencies --    112.3052               117.5796               122.8592
 Red. masses --      3.0782                 5.5725                 5.3196
 Frc consts  --      0.0229                 0.0454                 0.0473
 IR Inten    --      5.5002                 0.0026                 6.8372

                     10                     11                     12
                      A                      A                      A
 Frequencies --    126.5194               131.5501               181.9687
 Red. masses --      1.0785                 5.6630                 1.1499
 Frc consts  --      0.0102                 0.0577                 0.0224
 IR Inten    --      0.0004                 0.9726                 5.6021

                     13                     14                     15
                      A                      A                      A
 Frequencies --    195.9439               217.4722               244.7009
 Red. masses --      4.7132                 1.6277                 1.3189
 Frc consts  --      0.1066                 0.0454                 0.0465
 IR Inten    --      0.0001                 2.1904               115.8089

                     16                     17                     18
                      A                      A                      A
 Frequencies --    250.1533               250.6863               261.0695
 Red. masses --      1.0829                 4.4721                 1.0855
 Frc consts  --      0.0399                 0.1656                 0.0436
 IR Inten    --      0.1454                10.5893                 0.0042

                     19                     20                     21
                      A                      A                      A
 Frequencies --    263.3990               289.4754               294.7145
 Red. masses --      2.7773                 5.7593                 1.0836
 Frc consts  --      0.1135                 0.2843                 0.0555
 IR Inten    --     44.7311                 0.0034                 0.0015

                     22                     23                     24
                      A                      A                      A
 Frequencies --    298.9179               312.9281               321.5641
 Red. masses --      1.4294                 1.4199                 1.0331
 Frc consts  --      0.0753                 0.0819                 0.0629
 IR Inten    --    285.3960               324.5313                 0.0246

                     25                     26                     27
                      A                      A                      A
 Frequencies --    329.1178               337.6972               395.4182
 Red. masses --      1.0905                 1.2178                 1.0147
 Frc consts  --      0.0696                 0.0818                 0.0935
 IR Inten    --      0.0021               419.5538                 0.0598

                     28                     29                     30
                      A                      A                      A
 Frequencies --    492.6432               510.9351               513.2718
 Red. masses --      1.1387                 1.1515                 1.1945
 Frc consts  --      0.1628                 0.1771                 0.1854
 IR Inten    --      0.0040                 0.0020               187.4187

                     31                     32                     33
                      A                      A                      A
 Frequencies --    518.6784               530.6812               543.6673
 Red. masses --      1.1456                 1.2017                 1.2086
 Frc consts  --      0.1816                 0.1994                 0.2105
 IR Inten    --      0.0178               220.3349               177.5451

                     34                     35                     36
                      A                      A                      A
 Frequencies --   1628.7920              1629.5215              1630.1275
 Red. masses --      1.0941                 1.0911                 1.0914
 Frc consts  --      1.7102                 1.7070                 1.7088
 IR Inten    --      0.0044               187.7543               159.5487

                     37                     38                     39
                      A                      A                      A
 Frequencies --   1630.8664              1632.8481              1641.0050
 Red. masses --      1.0923                 1.0905                 1.0840
 Frc consts  --      1.7116                 1.7130                 1.7199
 IR Inten    --      0.0163               163.8886                 0.0013

                     40                     41                     42
                      A                      A                      A
 Frequencies --   3719.2055              3720.2940              3724.5183
 Red. masses --      1.0441                 1.0441                 1.0438
 Frc consts  --      8.5094                 8.5144                 8.5314
 IR Inten    --    212.3860                 0.0011                 0.0039

                     43                     44                     45
                      A                      A                      A
 Frequencies --   3727.1674              3729.3753              3732.0473
 Red. masses --      1.0445                 1.0445                 1.0449
 Frc consts  --      8.5488                 8.5589                 8.5750
 IR Inten    --    188.2987               212.4800                 0.0020

                     46                     47                     48
                      A                      A                      A
 Frequencies --   3814.2022              3814.6759              3821.3452
 Red. masses --      1.0842                 1.0841                 1.0838
 Frc consts  --      9.2932                 9.2951                 9.3249
 IR Inten    --      0.0152               332.4817                 1.5292

                     49                     50                     51
                      A                      A                      A
 Frequencies --   3821.6906              3824.7053              3825.0120
 Red. masses --      1.0838                 1.0838                 1.0839
 Frc consts  --      9.3263                 9.3413                 9.3433
 IR Inten    --    299.7549                 0.3973               339.1443

 - Thermochemistry -
 -------------------
 Temperature   298.150 Kelvin.  Pressure   1.00000 Atm.
 Atom     1 has atomic number 26 and mass  55.93494

 Molecular mass:   163.99833 amu.
 Principal axes and moments of inertia in atomic units:
                           1         2         3
     Eigenvalues --  1323.762971327.028161357.62052
           X            1.00000  -0.00208  -0.00003
           Y            0.00208   0.99998  -0.00648
           Z            0.00005   0.00648   0.99998
 This molecule is an asymmetric top.
 Rotational symmetry number  1.
 Warning -- assumption of classical behavior for rotation
           may cause significant error
 Rotational temperatures (Kelvin)      0.06543     0.06527     0.06380
 Rotational constants (GHZ):           1.36334     1.35999     1.32934
 Zero-point vibrational energy     381373.4 (Joules/Mol)
                                   91.15044 (Kcal/Mol)
 Warning -- explicit consideration of  33 degrees of freedom as
           vibrations may cause significant error
 Vibrational temperatures:    108.55   114.40   120.30   124.82   129.50
          (Kelvin)            161.17   161.58   169.17   176.77   182.03
                              189.27   261.81   281.92   312.89   352.07
                              359.91   360.68   375.62   378.97   416.49
                              424.03   430.08   450.23   462.66   473.53
                              485.87   568.92   708.80   735.12   738.48
                              746.26   763.53   782.22  2343.47  2344.52
                             2345.39  2346.45  2349.30  2361.04  5351.11
                             5352.67  5358.75  5362.56  5365.74  5369.58
                             5487.79  5488.47  5498.06  5498.56  5502.90
                             5503.34

 Zero-point correction=                           0.145257 (Hartree/Particle)
 Thermal correction to Energy=                    0.164639
 Thermal correction to Enthalpy=                  0.165583
 Thermal correction to Gibbs Free Energy=         0.098826
 Sum of electronic and zero-point Energies=          -1721.763522
 Sum of electronic and thermal Energies=             -1721.744141
 Sum of electronic and thermal Enthalpies=           -1721.743197
 Sum of electronic and thermal Free Energies=        -1721.809953

                     E (Thermal)             CV                S
                      KCal/Mol        Cal/Mol-Kelvin    Cal/Mol-Kelvin
 Total                  103.312             62.230            140.501
 Electronic               0.000              0.000              3.198
 Translational            0.889              2.981             41.193
 Rotational               0.889              2.981             29.257
 Vibrational            101.535             56.269             66.853
 Vibration     1          0.599              1.965              4.006
 Vibration     2          0.600              1.963              3.903
 Vibration     3          0.601              1.960              3.804
 Vibration     4          0.601              1.958              3.732
 Vibration     5          0.602              1.956              3.660
 Vibration     6          0.607              1.940              3.234
 Vibration     7          0.607              1.939              3.229
 Vibration     8          0.608              1.935              3.140
 Vibration     9          0.610              1.930              3.055
 Vibration    10          0.611              1.927              2.998
 Vibration    11          0.612              1.922              2.923
 Vibration    12          0.630              1.864              2.308
 Vibration    13          0.636              1.846              2.171
 Vibration    14          0.646              1.814              1.980
 Vibration    15          0.660              1.772              1.768
 Vibration    16          0.663              1.763              1.729
 Vibration    17          0.663              1.762              1.726
 Vibration    18          0.669              1.744              1.655
 Vibration    19          0.670              1.740              1.639
 Vibration    20          0.686              1.693              1.477
 Vibration    21          0.689              1.684              1.447
 Vibration    22          0.692              1.676              1.423
 Vibration    23          0.701              1.649              1.347
 Vibration    24          0.707              1.632              1.302
 Vibration    25          0.712              1.617              1.264
 Vibration    26          0.718              1.600              1.223
 Vibration    27          0.762              1.480              0.980
 Vibration    28          0.848              1.266              0.677
 Vibration    29          0.866              1.226              0.631
 Vibration    30          0.868              1.221              0.626
 Vibration    31          0.874              1.209              0.613
 Vibration    32          0.886              1.182              0.586
 Vibration    33          0.899              1.154              0.557

 Normal termination of Gaussian 16 at Wed Mar  5 20:56:53 2025.
 Gaussian 16:  ES64L-G16RevC.02  7-Dec-2021

 ----------------------------------------------------------------------
 #p OLYP scrf=(cpcm,solvent=water) geom=allcheck guess=read chkbasis IO
 p(3/174=1000000) IOp(3/175=1764000) IOp(3/176=806000)
 ----------------------------------------------------------------------

 Structure from the checkpoint file:  "Fe_2_OLYP.chk_solvated"
 -----
 Title
 -----
 Charge =  2 Multiplicity = 5

                         Standard orientation:
 ---------------------------------------------------------------------
 Center     Atomic      Atomic             Coordinates (Angstroms)
 Number     Number       Type             X           Y           Z
 ---------------------------------------------------------------------
      1         26           0       -0.000241    0.000055    0.000041
      2          8           0       -0.126199   -2.056600   -0.775886
      3          1           0       -0.181245   -2.875988   -0.262812
      4          8           0        2.208684   -0.133609   -0.003924
      5          1           0        2.828019    0.467527    0.435338
      6          8           0        0.044690    0.792380   -2.009889
      7          1           0       -0.715991    1.097312   -2.526819
      8          8           0        0.126222    2.056772    0.775500
      9          1           0        0.142446    2.315509    1.708534
     10          8           0       -2.208832    0.133079    0.004144
     11          1           0       -2.749982    0.804250    0.445260
     12          8           0       -0.043840   -0.792144    2.009983
     13          1           0        0.717621   -1.096963    2.525833
     14          1           0       -0.833827   -0.999265    2.531375
     15          1           0        2.749478   -0.806262   -0.443210
     16          1           0       -0.141136   -2.315107   -1.709004
     17          1           0       -2.827861   -0.467040   -0.436940
     18          1           0        0.835442    0.999349   -2.530184
     19          1           0        0.177516    2.876223    0.262142
 ---------------------------------------------------------------------

 SCF Done:  E(UO-LYP) =  -1722.18312873     A.U. after   17 cycles

 The electronic state is 5-A.
 Alpha  occ. eigenvalues -- -254.75440 -29.69248 -25.65249 -25.62317 -25.62296
 Alpha  occ. eigenvalues --  -18.84664 -18.84664 -18.84168 -18.84168 -18.83867
 Alpha  occ. eigenvalues --  -18.83864  -3.43213  -2.28221  -2.22252  -2.22231
 Alpha  occ. eigenvalues --   -0.99247  -0.99034  -0.98620  -0.98611  -0.98261
 Alpha  occ. eigenvalues --   -0.98231  -0.53567  -0.53473  -0.53169  -0.53107
 Alpha  occ. eigenvalues --   -0.52734  -0.52704  -0.46498  -0.44536  -0.43669
 Alpha  occ. eigenvalues --   -0.42841  -0.42399  -0.41862  -0.34864  -0.34663
 Alpha  occ. eigenvalues --   -0.32286  -0.31961  -0.31749  -0.31434  -0.30256
 Alpha  occ. eigenvalues --   -0.29927  -0.27706  -0.26375  -0.26265
 Alpha virt. eigenvalues --   -0.07722  -0.03757  -0.03666  -0.03639   0.01676
 Alpha virt. eigenvalues --    0.01745   0.02768   0.05961   0.06183   0.06225
 Alpha virt. eigenvalues --    0.06496   0.06539   0.06953   0.09599   0.12196

  Beta  occ. eigenvalues -- -254.75374 -29.61982 -25.59097 -25.57373 -25.57359
  Beta  occ. eigenvalues --  -18.84561 -18.84561 -18.84086 -18.84086 -18.83785
  Beta  occ. eigenvalues --  -18.83782  -3.26511  -2.09047  -2.06975  -2.06966
  Beta  occ. eigenvalues --   -0.99030  -0.98814  -0.98443  -0.98436  -0.98102
  Beta  occ. eigenvalues --   -0.98063  -0.53409  -0.53338  -0.53008  -0.52984
  Beta  occ. eigenvalues --   -0.52599  -0.52594  -0.45747  -0.42437  -0.42426
  Beta  occ. eigenvalues --   -0.42020  -0.41735  -0.41525  -0.32316  -0.32101
  Beta  occ. eigenvalues --   -0.31989  -0.31556  -0.31310  -0.31240  -0.17656
  Beta virt. eigenvalues --   -0.16204  -0.15776  -0.13120  -0.10682  -0.07442
  Beta virt. eigenvalues --   -0.03696  -0.03604  -0.03593   0.01901   0.02012
  Beta virt. eigenvalues --    0.03318   0.06104   0.06298   0.06333   0.06608

 Mulliken charges and spin densities:
               1          2
     1  Fe   1.321351   3.842184
     2  O   -0.681753   0.016525
     3  H    0.397320   0.002870
     4  O   -0.674908   0.020682
     5  H    0.393176   0.002170
     6  O   -0.680591   0.028035
     7  H    0.398498   0.001911
     8  O   -0.681728   0.016533
     9  H    0.395801   0.002594
    10  O   -0.674721   0.020754
    11  H    0.393213   0.002170
    12  O   -0.680576   0.028048
    13  H    0.398486   0.001908
    14  H    0.398478   0.001908
    15  H    0.393224   0.002172
    16  H    0.395795   0.002593
    17  H    0.393153   0.002166
    18  H    0.398468   0.001906
    19  H    0.397316   0.002870
 Sum of Mulliken charges =   2.00000   4.00000

 Dipole moment (field-independent basis, Debye):
    X=             -0.0038    Y=              0.0001    Z=             -0.0002  Tot=              0.0038
 Quadrupole moment (field-independent basis, Debye-Ang):
   XX=            -16.1094   YY=            -15.5676   ZZ=            -15.2807
   XY=              0.0495   XZ=             -0.0240   YZ=             -0.2203

 Normal termination of Gaussian 16 at Wed Mar  5 20:57:59 2025.
