 Gaussian 16, Revision C.02,

 ----------------------------------------------------------------------
 #p OPBE 6-31+G(2df,p) opt=(cartesian,calcall,maxcycles=500) freq scf=(
 maxcycles=500,xqc,maxconventional=50) IOp(3/174=1000000) IOp(3/175=205
 5000) IOp(3/176=837000)
 ----------------------------------------------------------------------

 -----
 Title
 -----
 Symbolic Z-matrix:
 Charge =  2 Multiplicity = 5

 SCF Done:  E(UO-PBE) =  -1721.53229426     A.U. after   23 cycles
 SCF Done:  E(UO-PBE) =  -1721.56522829     A.U. after   18 cycles
 SCF Done:  E(UO-PBE) =  -1721.61795551     A.U. after   18 cycles
 SCF Done:  E(UO-PBE) =  -1721.66213433     A.U. after   20 cycles
 SCF Done:  E(UO-PBE) =  -1721.68768826     A.U. after   19 cycles
 SCF Done:  E(UO-PBE) =  -1721.72113520     A.U. after   21 cycles
 SCF Done:  E(UO-PBE) =  -1721.73161051     A.U. after   21 cycles
 SCF Done:  E(UO-PBE) =  -1721.74355885     A.U. after   21 cycles
 SCF Done:  E(UO-PBE) =  -1721.75856969     A.U. after   20 cycles
 SCF Done:  E(UO-PBE) =  -1721.74003092     A.U. after   21 cycles
 SCF Done:  E(UO-PBE) =  -1721.78563985     A.U. after   17 cycles
 SCF Done:  E(UO-PBE) =  -1721.78564251     A.U. after   17 cycles
 SCF Done:  E(UO-PBE) =  -1721.78564726     A.U. after    9 cycles
 SCF Done:  E(UO-PBE) =  -1721.78564793     A.U. after   17 cycles
 SCF Done:  E(UO-PBE) =  -1721.78564523     A.U. after   17 cycles
 SCF Done:  E(UO-PBE) =  -1721.78563308     A.U. after   17 cycles
 SCF Done:  E(UO-PBE) =  -1721.78563386     A.U. after   16 cycles
 SCF Done:  E(UO-PBE) =  -1721.78564701     A.U. after    8 cycles
 Optimization completed.
    -- Stationary point found.
 Normal termination of Gaussian 16 at Wed Mar  5 21:06:03 2025.

 ----------------------------------------------------------------------
 #P Geom=AllCheck Guess=TCheck SCRF=Check Test GenChk UOPBE/6-31+G(2df,
 p) Freq
 ----------------------------------------------------------------------

 Structure from the checkpoint file:  "Fe_2_OPBE.chk"
 -----
 Title
 -----
 Charge =  2 Multiplicity = 5

 SCF Done:  E(UO-PBE) =  -1721.78564701     A.U. after    1 cycles

  Exact polarizability:      59.844      -0.438      60.480      -0.044       0.052      61.533
 Approx polarizability:      80.054      -0.938      81.463      -0.644      -0.158      84.222

                      1                      2                      3
                      A                      A                      A
 Frequencies --     63.2266                76.7058                80.2356
 Red. masses --      3.2178                 6.2964                 8.9909
 Frc consts  --      0.0076                 0.0218                 0.0341
 IR Inten    --      1.9741                 9.0875                33.0639

                      4                      5                      6
                      A                      A                      A
 Frequencies --     87.0923                88.3962               111.1846
 Red. masses --      5.5474                 5.1311                 2.6562
 Frc consts  --      0.0248                 0.0236                 0.0193
 IR Inten    --      1.2738                 3.2413                 7.2295

                      7                      8                      9
                      A                      A                      A
 Frequencies --    112.4320               123.1008               126.0665
 Red. masses --      4.7208                 5.2008                 1.2679
 Frc consts  --      0.0352                 0.0464                 0.0119
 IR Inten    --      1.0570                 9.9018                 0.1454

                     10                     11                     12
                      A                      A                      A
 Frequencies --    132.6151               135.2355               177.3324
 Red. masses --      5.3215                 5.6049                 1.1252
 Frc consts  --      0.0551                 0.0604                 0.0208
 IR Inten    --      1.4624                 0.0034                 4.1856

                     13                     14                     15
                      A                      A                      A
 Frequencies --    199.0296               217.9005               229.5928
 Red. masses --      4.7992                 1.6616                 1.1265
 Frc consts  --      0.1120                 0.0465                 0.0350
 IR Inten    --      0.0818                10.3187               113.0966

                     16                     17                     18
                      A                      A                      A
 Frequencies --    233.4203               247.2811               255.0218
 Red. masses --      1.1252                 3.6152                 1.1823
 Frc consts  --      0.0361                 0.1302                 0.0453
 IR Inten    --     82.3157                27.7337                18.1965

                     19                     20                     21
                      A                      A                      A
 Frequencies --    258.5867               284.5296               290.6891
 Red. masses --      1.7546                 1.1166                 5.5440
 Frc consts  --      0.0691                 0.0533                 0.2760
 IR Inten    --     72.9255                 3.6339                 0.1764

                     22                     23                     24
                      A                      A                      A
 Frequencies --    293.7834               302.5744               315.1457
 Red. masses --      1.7137                 1.7242                 1.0251
 Frc consts  --      0.0871                 0.0930                 0.0600
 IR Inten    --    184.7003               263.0763                 3.1897

                     25                     26                     27
                      A                      A                      A
 Frequencies --    318.7508               322.2380               395.3644
 Red. masses --      1.0865                 1.2784                 1.0158
 Frc consts  --      0.0650                 0.0782                 0.0935
 IR Inten    --      4.3302               412.2407                 0.6140

                     28                     29                     30
                      A                      A                      A
 Frequencies --    499.2236               508.5925               515.3004
 Red. masses --      1.1380                 1.1547                 1.1864
 Frc consts  --      0.1671                 0.1760                 0.1856
 IR Inten    --      1.5005                15.4811               163.5077

                     31                     32                     33
                      A                      A                      A
 Frequencies --    522.9656               535.4274               547.2375
 Red. masses --      1.1445                 1.2022                 1.2054
 Frc consts  --      0.1844                 0.2031                 0.2127
 IR Inten    --      1.4666               212.3435               170.8285

                     34                     35                     36
                      A                      A                      A
 Frequencies --   1631.7568              1632.4331              1632.9896
 Red. masses --      1.0930                 1.0920                 1.0917
 Frc consts  --      1.7147                 1.7145                 1.7153
 IR Inten    --     61.1848               137.2438               121.1912

                     37                     38                     39
                      A                      A                      A
 Frequencies --   1633.3947              1635.7713              1643.8678
 Red. masses --      1.0924                 1.0909                 1.0843
 Frc consts  --      1.7171                 1.7197                 1.7263
 IR Inten    --     36.6591               150.9340                 1.0858

                     40                     41                     42
                      A                      A                      A
 Frequencies --   3765.6418              3766.7724              3769.3208
 Red. masses --      1.0443                 1.0442                 1.0443
 Frc consts  --      8.7244                 8.7293                 8.7420
 IR Inten    --    196.1344                18.8559                55.7854

                     43                     44                     45
                      A                      A                      A
 Frequencies --   3772.5982              3776.3637              3781.0156
 Red. masses --      1.0444                 1.0448                 1.0448
 Frc consts  --      8.7577                 8.7787                 8.8007
 IR Inten    --    136.7081               139.4692                68.5379

                     46                     47                     48
                      A                      A                      A
 Frequencies --   3865.4570              3866.2986              3869.0909
 Red. masses --      1.0840                 1.0840                 1.0837
 Frc consts  --      9.5429                 9.5468                 9.5580
 IR Inten    --     76.9650               261.2350               144.7205

                     49                     50                     51
                      A                      A                      A
 Frequencies --   3873.1713              3875.6031              3880.5526
 Red. masses --      1.0838                 1.0837                 1.0836
 Frc consts  --      9.5789                 9.5901                 9.6145
 IR Inten    --    168.6993               163.9410               176.6175

 - Thermochemistry -
 -------------------
 Temperature   298.150 Kelvin.  Pressure   1.00000 Atm.
 Atom     1 has atomic number 26 and mass  55.93494

 Molecular mass:   163.99833 amu.
 Principal axes and moments of inertia in atomic units:
                           1         2         3
     Eigenvalues --  1307.587731312.859451337.11196
           X            0.99953   0.02632   0.01559
           Y           -0.02633   0.99965   0.00034
           Z           -0.01558  -0.00075   0.99988
 This molecule is an asymmetric top.
 Rotational symmetry number  1.
 Warning -- assumption of classical behavior for rotation
           may cause significant error
 Rotational temperatures (Kelvin)      0.06624     0.06597     0.06478
 Rotational constants (GHZ):           1.38021     1.37466     1.34973
 Zero-point vibrational energy     384470.1 (Joules/Mol)
                                   91.89055 (Kcal/Mol)
 Warning -- explicit consideration of  33 degrees of freedom as
           vibrations may cause significant error
 Vibrational temperatures:     90.97   110.36   115.44   125.31   127.18
          (Kelvin)            159.97   161.76   177.11   181.38   190.80
                              194.57   255.14   286.36   313.51   330.33
                              335.84   355.78   366.92   372.05   409.37
                              418.24   422.69   435.34   453.42   458.61
                              463.63   568.84   718.27   731.75   741.40
                              752.43   770.36   787.35  2347.73  2348.71
                             2349.51  2350.09  2353.51  2365.16  5417.92
                             5419.55  5423.21  5427.93  5433.35  5440.04
                             5561.53  5562.74  5566.76  5572.63  5576.13
                             5583.25

 Zero-point correction=                           0.146437 (Hartree/Particle)
 Thermal correction to Energy=                    0.165948
 Thermal correction to Enthalpy=                  0.166892
 Thermal correction to Gibbs Free Energy=         0.099745
 Sum of electronic and zero-point Energies=          -1721.639210
 Sum of electronic and thermal Energies=             -1721.619699
 Sum of electronic and thermal Enthalpies=           -1721.618755
 Sum of electronic and thermal Free Energies=        -1721.685902

                     E (Thermal)             CV                S
                      KCal/Mol        Cal/Mol-Kelvin    Cal/Mol-Kelvin
 Total                  104.134             62.367            141.324
 Electronic               0.000              0.000              3.198
 Translational            0.889              2.981             41.193
 Rotational               0.889              2.981             29.219
 Vibrational            102.357             56.405             67.714
 Vibration     1          0.597              1.972              4.354
 Vibration     2          0.599              1.965              3.973
 Vibration     3          0.600              1.963              3.885
 Vibration     4          0.601              1.958              3.724
 Vibration     5          0.601              1.957              3.695
 Vibration     6          0.607              1.940              3.248
 Vibration     7          0.607              1.939              3.226
 Vibration     8          0.610              1.930              3.051
 Vibration     9          0.611              1.927              3.005
 Vibration    10          0.613              1.921              2.908
 Vibration    11          0.613              1.918              2.870
 Vibration    12          0.628              1.870              2.356
 Vibration    13          0.637              1.841              2.142
 Vibration    14          0.646              1.814              1.976
 Vibration    15          0.652              1.796              1.882
 Vibration    16          0.654              1.790              1.852
 Vibration    17          0.661              1.767              1.750
 Vibration    18          0.665              1.754              1.696
 Vibration    19          0.667              1.748              1.671
 Vibration    20          0.683              1.702              1.506
 Vibration    21          0.687              1.691              1.470
 Vibration    22          0.689              1.685              1.452
 Vibration    23          0.694              1.669              1.403
 Vibration    24          0.703              1.645              1.335
 Vibration    25          0.705              1.638              1.317
 Vibration    26          0.707              1.631              1.299
 Vibration    27          0.762              1.480              0.980
 Vibration    28          0.855              1.252              0.660
 Vibration    29          0.864              1.231              0.637
 Vibration    30          0.870              1.216              0.621
 Vibration    31          0.878              1.199              0.603
 Vibration    32          0.890              1.172              0.575
 Vibration    33          0.902              1.146              0.550

 Normal termination of Gaussian 16 at Wed Mar  5 21:07:31 2025.
 Gaussian 16:  ES64L-G16RevC.02  7-Dec-2021

 ----------------------------------------------------------------------
 #p OPBE scrf=(cpcm,solvent=water) geom=allcheck guess=read chkbasis IO
 p(3/174=1000000) IOp(3/175=2055000) IOp(3/176=837000)
 ----------------------------------------------------------------------

 Structure from the checkpoint file:  "Fe_2_OPBE.chk_solvated"
 -----
 Title
 -----
 Charge =  2 Multiplicity = 5

                         Standard orientation:
 ---------------------------------------------------------------------
 Center     Atomic      Atomic             Coordinates (Angstroms)
 Number     Number       Type             X           Y           Z
 ---------------------------------------------------------------------
      1         26           0        0.000631   -0.001218    0.000017
      2          8           0       -1.934484   -0.910503    0.492598
      3          1           0       -2.567228   -1.313991   -0.114445
      4          8           0       -0.971895    1.957189   -0.121677
      5          1           0       -0.610272    2.763668   -0.510663
      6          8           0        0.396179    0.330227    2.085400
      7          1           0        0.904629   -0.243819    2.672956
      8          8           0        1.928074    0.923716   -0.494182
      9          1           0        2.283369    1.055135   -1.382213
     10          8           0        0.973835   -1.959173    0.123319
     11          1           0        1.853927   -2.187924   -0.202991
     12          8           0       -0.395612   -0.333711   -2.085266
     13          1           0       -0.907219    0.240173   -2.670352
     14          1           0       -0.212259   -1.141311   -2.582872
     15          1           0       -1.858131    2.181035    0.189535
     16          1           0       -2.287163   -1.044746    1.380930
     17          1           0        0.617094   -2.763558    0.521172
     18          1           0        0.215197    1.140097    2.580126
     19          1           0        2.582884    1.284945    0.116855
 ---------------------------------------------------------------------

 SCF Done:  E(UO-PBE) =  -1722.06019265     A.U. after   17 cycles

 The electronic state is 5-A.
 Alpha  occ. eigenvalues -- -254.70770 -29.68867 -25.64353 -25.61377 -25.61335
 Alpha  occ. eigenvalues --  -18.83031 -18.83030 -18.82447 -18.82446 -18.82330
 Alpha  occ. eigenvalues --  -18.82311  -3.43972  -2.28918  -2.22837  -2.22755
 Alpha  occ. eigenvalues --   -1.00075  -0.99850  -0.99395  -0.99354  -0.99156
 Alpha  occ. eigenvalues --   -0.99102  -0.54088  -0.53981  -0.53608  -0.53548
 Alpha  occ. eigenvalues --   -0.53322  -0.53285  -0.47227  -0.45158  -0.44433
 Alpha  occ. eigenvalues --   -0.43385  -0.42875  -0.42513  -0.35439  -0.35239
 Alpha  occ. eigenvalues --   -0.32638  -0.32317  -0.32006  -0.31836  -0.30595
 Alpha  occ. eigenvalues --   -0.30258  -0.27955  -0.26587  -0.26522
 Alpha virt. eigenvalues --   -0.06589  -0.02502  -0.02407  -0.02395   0.02932
 Alpha virt. eigenvalues --    0.03105   0.03204   0.06916   0.07191   0.07496
 Alpha virt. eigenvalues --    0.07712   0.08061   0.08415   0.09943   0.13380

  Beta  occ. eigenvalues -- -254.70720 -29.61420 -25.58058 -25.56334 -25.56309
  Beta  occ. eigenvalues --  -18.82938 -18.82937 -18.82377 -18.82376 -18.82253
  Beta  occ. eigenvalues --  -18.82234  -3.27084  -2.09253  -2.07285  -2.07247
  Beta  occ. eigenvalues --   -0.99871  -0.99650  -0.99231  -0.99207  -0.99003
  Beta  occ. eigenvalues --   -0.98942  -0.53940  -0.53858  -0.53457  -0.53435
  Beta  occ. eigenvalues --   -0.53194  -0.53177  -0.46260  -0.42923  -0.42864
  Beta  occ. eigenvalues --   -0.42429  -0.42267  -0.42118  -0.32674  -0.32446
  Beta  occ. eigenvalues --   -0.32351  -0.31835  -0.31681  -0.31645  -0.17580
  Beta virt. eigenvalues --   -0.15696  -0.15283  -0.12716  -0.10219  -0.06150
  Beta virt. eigenvalues --   -0.02375  -0.02303  -0.02280   0.03357   0.03471
  Beta virt. eigenvalues --    0.03731   0.07163   0.07454   0.07793   0.07859

 Mulliken charges and spin densities:
               1          2
     1  Fe   1.278318   3.898174
     2  O   -0.697929   0.005324
     3  H    0.408573   0.002810
     4  O   -0.689886   0.015062
     5  H    0.404943   0.002070
     6  O   -0.696785   0.017391
     7  H    0.409983   0.001872
     8  O   -0.698424   0.005247
     9  H    0.406743   0.002428
    10  O   -0.689224   0.015215
    11  H    0.405011   0.002059
    12  O   -0.696834   0.017362
    13  H    0.410060   0.001863
    14  H    0.409974   0.001877
    15  H    0.405056   0.002074
    16  H    0.406681   0.002412
    17  H    0.404876   0.002071
    18  H    0.410035   0.001860
    19  H    0.408829   0.002830
 Sum of Mulliken charges =   2.00000   4.00000

 Dipole moment (field-independent basis, Debye):
    X=              0.0446    Y=             -0.0919    Z=             -0.0035  Tot=              0.1022
 Quadrupole moment (field-independent basis, Debye-Ang):
   XX=            -15.3808   YY=            -15.2847   ZZ=            -14.7386
   XY=              0.3261   XZ=              0.2892   YZ=              0.0854

 Normal termination of Gaussian 16 at Wed Mar  5 21:08:37 2025.
