 Gaussian 16, Revision C.02,

 ----------------------------------------------------------------------
 #p M08HX geom=allcheck guess=read chkbasis opt=(cartesian,calcall,maxc
 ycles=500,loose) freq scf=(maxcycles=500,xqc,maxconventional=50) IOp(3
 /174=1000000) IOp(3/175=0) IOp(3/176=1624700)
 ----------------------------------------------------------------------

 Structure from the checkpoint file:  "Fe_2_M08-HX.chk"
 -----
 Title
 -----
 Charge =  2 Multiplicity = 5

 SCF Done:  E(UM08HX) =  -1721.58315703     A.U. after   29 cycles
 SCF Done:  E(UM08HX) =  -1721.58328882     A.U. after   32 cycles
 Optimization completed.
    -- Stationary point found.
 Normal termination of Gaussian 16 at Thu Mar  6 11:08:29 2025.

 ----------------------------------------------------------------------
 #P Geom=AllCheck Guess=TCheck SCRF=Check Test GenChk UM08HX/ChkBas Fre
 q
 ----------------------------------------------------------------------

 Structure from the checkpoint file:  "Fe_2_M08-HX.chk"
 -----
 Title
 -----
 Charge =  2 Multiplicity = 5

 SCF Done:  E(UM08HX) =  -1721.58328882     A.U. after    1 cycles

  Exact polarizability:      52.483       0.007      53.123       0.202      -0.005      53.290
 Approx polarizability:      55.107       0.010      56.324       0.204      -0.008      57.164

                      1                      2                      3
                      A                      A                      A
 Frequencies --     69.3534                73.2245                80.4882
 Red. masses --      4.7469                 4.7371                 4.8226
 Frc consts  --      0.0135                 0.0150                 0.0184
 IR Inten    --      3.7767                 0.0000                 2.6865

                      4                      5                      6
                      A                      A                      A
 Frequencies --     84.9789                86.9561                96.3239
 Red. masses --      4.6861                 5.6664                 4.6973
 Frc consts  --      0.0199                 0.0252                 0.0257
 IR Inten    --      0.0000                 7.3603                 0.0000

                      7                      8                      9
                      A                      A                      A
 Frequencies --    100.5364               112.1391               117.5341
 Red. masses --      3.1769                 5.3161                 5.0411
 Frc consts  --      0.0189                 0.0394                 0.0410
 IR Inten    --      0.0483                 3.1276                 0.9067

                     10                     11                     12
                      A                      A                      A
 Frequencies --    148.4291               192.6119               232.6291
 Red. masses --      4.4585                 1.0899                 1.0438
 Frc consts  --      0.0579                 0.0238                 0.0333
 IR Inten    --      0.0000                 6.3900                 0.0727

                     13                     14                     15
                      A                      A                      A
 Frequencies --    251.3779               282.6650               293.1652
 Red. masses --      1.4207                 2.4682                 1.0251
 Frc consts  --      0.0529                 0.1162                 0.0519
 IR Inten    --      0.0000                 0.0000                 0.0000

                     16                     17                     18
                      A                      A                      A
 Frequencies --    335.3224               342.2544               343.9630
 Red. masses --      2.9454                 1.1301                 3.5468
 Frc consts  --      0.1951                 0.0780                 0.2472
 IR Inten    --     69.4020                 0.0000                33.2070

                     19                     20                     21
                      A                      A                      A
 Frequencies --    348.1139               350.5911               373.1145
 Red. masses --      2.4235                 5.9001                 1.0993
 Frc consts  --      0.1730                 0.4273                 0.0902
 IR Inten    --    131.7048                 0.0000                 0.0000

                     22                     23                     24
                      A                      A                      A
 Frequencies --    385.1197               388.6670               389.0264
 Red. masses --      1.3083                 1.1289                 1.6724
 Frc consts  --      0.1143                 0.1005                 0.1491
 IR Inten    --    318.1804                 0.0005               239.9329

                     25                     26                     27
                      A                      A                      A
 Frequencies --    413.3843               416.2639               426.9695
 Red. masses --      1.2487                 1.0503                 1.0619
 Frc consts  --      0.1257                 0.1072                 0.1141
 IR Inten    --    352.6172                39.5035                 0.0000

                     28                     29                     30
                      A                      A                      A
 Frequencies --    505.5612               522.7116               525.3554
 Red. masses --      1.1549                 1.2444                 1.1631
 Frc consts  --      0.1739                 0.2003                 0.1891
 IR Inten    --      0.0000               311.3280                 0.0000

                     31                     32                     33
                      A                      A                      A
 Frequencies --    542.8903               543.1366               746.7543
 Red. masses --      1.2395                 1.2375                 1.1319
 Frc consts  --      0.2152                 0.2151                 0.3719
 IR Inten    --    298.6751               312.0698                 0.0000

                     34                     35                     36
                      A                      A                      A
 Frequencies --   1650.9609              1653.4858              1654.2431
 Red. masses --      1.0971                 1.0907                 1.0906
 Frc consts  --      1.7618                 1.7569                 1.7583
 IR Inten    --      0.0000               268.7117               264.9480

                     37                     38                     39
                      A                      A                      A
 Frequencies --   1654.8079              1655.7709              1661.9157
 Red. masses --      1.0917                 1.0896                 1.0845
 Frc consts  --      1.7613                 1.7600                 1.7649
 IR Inten    --      0.0002               256.4442                 0.0000

                     40                     41                     42
                      A                      A                      A
 Frequencies --   3826.9708              3829.3246              3831.8039
 Red. masses --      1.0435                 1.0442                 1.0440
 Frc consts  --      9.0045                 9.0215                 9.0316
 IR Inten    --      0.0000               262.1365                 0.0003

                     43                     44                     45
                      A                      A                      A
 Frequencies --   3832.6383              3835.6541              3840.0926
 Red. masses --      1.0443                 1.0444                 1.0451
 Frc consts  --      9.0379                 9.0533                 9.0798
 IR Inten    --    266.4074               248.3051                 0.0002

                     46                     47                     48
                      A                      A                      A
 Frequencies --   3914.4320              3915.0399              3917.8238
 Red. masses --      1.0849                 1.0849                 1.0847
 Frc consts  --      9.7941                 9.7979                 9.8097
 IR Inten    --      0.0000               433.6929                 0.0038

                     49                     50                     51
                      A                      A                      A
 Frequencies --   3918.2127              3919.2028              3919.7964
 Red. masses --      1.0848                 1.0845                 1.0847
 Frc consts  --      9.8121                 9.8146                 9.8191
 IR Inten    --    374.6125                 0.0360               467.1907

 - Thermochemistry -
 -------------------
 Temperature   298.150 Kelvin.  Pressure   1.00000 Atm.
 Atom     1 has atomic number 26 and mass  55.93494

 Molecular mass:   163.99833 amu.
 Principal axes and moments of inertia in atomic units:
                           1         2         3
     Eigenvalues --  1261.204201271.158121307.97034
           X            0.99999  -0.00089   0.00308
           Y            0.00089   1.00000  -0.00013
           Z           -0.00308   0.00013   1.00000
 This molecule is an asymmetric top.
 Rotational symmetry number  1.
 Warning -- assumption of classical behavior for rotation
           may cause significant error
 Rotational temperatures (Kelvin)      0.06868     0.06814     0.06622
 Rotational constants (GHZ):           1.43097     1.41976     1.37980
 Zero-point vibrational energy     398080.1 (Joules/Mol)
                                   95.14342 (Kcal/Mol)
 Warning -- explicit consideration of  32 degrees of freedom as
           vibrations may cause significant error
 Vibrational temperatures:     99.78   105.35   115.80   122.27   125.11
          (Kelvin)            138.59   144.65   161.34   169.11   213.56
                              277.13   334.70   361.68   406.69   421.80
                              482.45   492.43   494.89   500.86   504.42
                              536.83   554.10   559.21   559.72   594.77
                              598.91   614.31   727.39   752.07   755.87
                              781.10   781.45  1074.41  2375.36  2379.00
                             2380.09  2380.90  2382.29  2391.13  5506.16
                             5509.54  5513.11  5514.31  5518.65  5525.04
                             5631.99  5632.87  5636.87  5637.43  5638.86
                             5639.71

 Zero-point correction=                           0.151621 (Hartree/Particle)
 Thermal correction to Energy=                    0.169454
 Thermal correction to Enthalpy=                  0.170398
 Thermal correction to Gibbs Free Energy=         0.106763
 Sum of electronic and zero-point Energies=          -1721.431668
 Sum of electronic and thermal Energies=             -1721.413835
 Sum of electronic and thermal Enthalpies=           -1721.412891
 Sum of electronic and thermal Free Energies=        -1721.476526

                     E (Thermal)             CV                S
                      KCal/Mol        Cal/Mol-Kelvin    Cal/Mol-Kelvin
 Total                  106.334             59.434            133.932
 Electronic               0.000              0.000              3.198
 Translational            0.889              2.981             41.193
 Rotational               0.889              2.981             29.129
 Vibrational            104.557             53.473             60.412
 Vibration     1          0.598              1.969              4.172
 Vibration     2          0.599              1.967              4.065
 Vibration     3          0.600              1.962              3.879
 Vibration     4          0.601              1.960              3.772
 Vibration     5          0.601              1.958              3.727
 Vibration     6          0.603              1.952              3.527
 Vibration     7          0.604              1.949              3.444
 Vibration     8          0.607              1.939              3.232
 Vibration     9          0.608              1.935              3.141
 Vibration    10          0.618              1.904              2.692
 Vibration    11          0.635              1.850              2.203
 Vibration    12          0.653              1.791              1.859
 Vibration    13          0.663              1.760              1.721
 Vibration    14          0.682              1.706              1.517
 Vibration    15          0.688              1.686              1.456
 Vibration    16          0.716              1.605              1.234
 Vibration    17          0.721              1.591              1.202
 Vibration    18          0.723              1.588              1.194
 Vibration    19          0.726              1.579              1.175
 Vibration    20          0.727              1.574              1.164
 Vibration    21          0.745              1.527              1.067
 Vibration    22          0.754              1.502              1.019
 Vibration    23          0.757              1.494              1.005
 Vibration    24          0.757              1.494              1.004
 Vibration    25          0.777              1.441              0.915
 Vibration    26          0.779              1.435              0.905
 Vibration    27          0.789              1.412              0.869
 Vibration    28          0.861              1.238              0.644
 Vibration    29          0.878              1.200              0.604
 Vibration    30          0.880              1.194              0.598
 Vibration    31          0.898              1.155              0.559
 Vibration    32          0.898              1.155              0.559

 Normal termination of Gaussian 16 at Thu Mar  6 11:10:52 2025.
 Gaussian 16:  ES64L-G16RevC.02  7-Dec-2021

 ----------------------------------------------------------------------
 #p M08HX scrf=(cpcm,solvent=water) geom=allcheck guess=read chkbasis I
 Op(3/174=1000000) IOp(3/175=0) IOp(3/176=1624700)
 ----------------------------------------------------------------------

 Structure from the checkpoint file:  "Fe_2_M08-HX.chk_solvated"
 -----
 Title
 -----
 Charge =  2 Multiplicity = 5

                         Standard orientation:
 ---------------------------------------------------------------------
 Center     Atomic      Atomic             Coordinates (Angstroms)
 Number     Number       Type             X           Y           Z
 ---------------------------------------------------------------------
      1         26           0        0.000001    0.000004   -0.000001
      2          8           0       -1.693349    0.006071    1.318246
      3          1           0       -2.619419    0.015890    1.052143
      4          8           0        0.019055    2.159734    0.013213
      5          1           0        0.514968    2.730397   -0.583860
      6          8           0        1.370733   -0.022421    1.626470
      7          1           0        1.737202   -0.806228    2.051016
      8          8           0        1.693354   -0.006071   -1.318241
      9          1           0        1.668256   -0.000586   -2.281399
     10          8           0       -0.019061   -2.159730   -0.013214
     11          1           0        0.467510   -2.731524   -0.616868
     12          8           0       -1.370733    0.022407   -1.626471
     13          1           0       -1.737216    0.806201   -2.051029
     14          1           0       -1.751516   -0.749493   -2.060071
     15          1           0       -0.467493    2.731524    0.616890
     16          1           0       -1.668244    0.000573    2.281403
     17          1           0       -0.515005   -2.730389    0.583836
     18          1           0        1.751530    0.749466    2.060084
     19          1           0        2.619422   -0.015853   -1.052132
 ---------------------------------------------------------------------

 SCF Done:  E(UM08HX) =  -1721.85876052     A.U. after   29 cycles

 The electronic state is 5-A.
 Alpha  occ. eigenvalues -- -257.91461 -30.65516 -26.57516 -26.54375 -26.54361
 Alpha  occ. eigenvalues --  -19.69363 -19.69363 -19.69139 -19.69139 -19.68776
 Alpha  occ. eigenvalues --  -19.68776  -3.80549  -2.61691  -2.55539  -2.55509
 Alpha  occ. eigenvalues --   -1.19576  -1.19135  -1.18923  -1.18844  -1.18529
 Alpha  occ. eigenvalues --   -1.18470  -0.67856  -0.67705  -0.67662  -0.67520
 Alpha  occ. eigenvalues --   -0.67163  -0.67054  -0.61415  -0.61217  -0.60131
 Alpha  occ. eigenvalues --   -0.57003  -0.56502  -0.56066  -0.52612  -0.52559
 Alpha  occ. eigenvalues --   -0.48149  -0.46374  -0.46117  -0.45749  -0.45229
 Alpha  occ. eigenvalues --   -0.44947  -0.43707  -0.43393  -0.41969
 Alpha virt. eigenvalues --   -0.05493  -0.02048  -0.02009  -0.02000   0.04263
 Alpha virt. eigenvalues --    0.05482   0.05511   0.08638   0.08831   0.09189
 Alpha virt. eigenvalues --    0.09931   0.10089   0.10196   0.14247   0.14488

  Beta  occ. eigenvalues -- -257.91550 -30.54858 -26.47140 -26.46416 -26.46412
  Beta  occ. eigenvalues --  -19.69210 -19.69209 -19.69004 -19.69004 -19.68646
  Beta  occ. eigenvalues --  -19.68646  -3.59838  -2.33322  -2.33275  -2.31519
  Beta  occ. eigenvalues --   -1.19352  -1.18886  -1.18702  -1.18592  -1.18330
  Beta  occ. eigenvalues --   -1.18249  -0.67712  -0.67589  -0.67459  -0.67436
  Beta  occ. eigenvalues --   -0.66997  -0.66995  -0.60630  -0.56467  -0.55994
  Beta  occ. eigenvalues --   -0.55852  -0.55588  -0.55308  -0.46495  -0.46305
  Beta  occ. eigenvalues --   -0.45983  -0.45863  -0.45798  -0.45497  -0.33251
  Beta virt. eigenvalues --   -0.05512  -0.02123  -0.02075  -0.02057   0.01362
  Beta virt. eigenvalues --    0.01688   0.03399   0.03832   0.04306   0.08671
  Beta virt. eigenvalues --    0.08791   0.09026   0.09256   0.09681   0.09929

 Mulliken charges and spin densities:
               1          2
     1  Fe   0.990352   3.842503
     2  O   -0.714397   0.021703
     3  H    0.443250   0.001917
     4  O   -0.718469   0.021532
     5  H    0.439843   0.001323
     6  O   -0.715918   0.026635
     7  H    0.443905   0.001235
     8  O   -0.714397   0.021703
     9  H    0.442869   0.001847
    10  O   -0.718471   0.021532
    11  H    0.439848   0.001323
    12  O   -0.715917   0.026635
    13  H    0.443905   0.001235
    14  H    0.443894   0.001233
    15  H    0.439847   0.001323
    16  H    0.442869   0.001847
    17  H    0.439843   0.001323
    18  H    0.443894   0.001233
    19  H    0.443250   0.001917
 Sum of Mulliken charges =   2.00000   4.00000

 Dipole moment (field-independent basis, Debye):
    X=             -0.0000    Y=              0.0000    Z=              0.0000  Tot=              0.0000
 Quadrupole moment (field-independent basis, Debye-Ang):
   XX=            -15.4664   YY=            -16.0671   ZZ=            -15.4419
   XY=             -0.0131   XZ=              0.2052   YZ=             -0.0144

 Normal termination of Gaussian 16 at Thu Mar  6 11:11:50 2025.
