 Gaussian 16, Revision C.02,

 ----------------------------------------------------------------------
 #p TPSSH 6-31+G(2df,p) opt=(cartesian,calcall,maxcycles=500,loose) fre
 q scf=(maxcycles=500,xqc,maxconventional=50) IOp(3/174=1000000) IOp(3/
 175=1219000) IOp(3/176=1223000)
 ----------------------------------------------------------------------

 -----
 Title
 -----
 Symbolic Z-matrix:
 Charge =  2 Multiplicity = 5

 SCF Done:  E(UTPSSh) =  -1721.52656830     A.U. after   27 cycles
 SCF Done:  E(UTPSSh) =  -1721.55980533     A.U. after   22 cycles
 SCF Done:  E(UTPSSh) =  -1721.61303747     A.U. after   22 cycles
 SCF Done:  E(UTPSSh) =  -1721.65785960     A.U. after   25 cycles
 SCF Done:  E(UTPSSh) =  -1721.68207436     A.U. after   23 cycles
 SCF Done:  E(UTPSSh) =  -1721.71233366     A.U. after   27 cycles
 SCF Done:  E(UTPSSh) =  -1721.71861954     A.U. after   25 cycles
 SCF Done:  E(UTPSSh) =  -1721.73900381     A.U. after   26 cycles
 SCF Done:  E(UTPSSh) =  -1721.75186754     A.U. after   26 cycles
 SCF Done:  E(UTPSSh) =  -1721.76041010     A.U. after   26 cycles
 SCF Done:  E(UTPSSh) =  -1721.77550244     A.U. after   23 cycles
 SCF Done:  E(UTPSSh) =  -1721.77542662     A.U. after   25 cycles
 SCF Done:  E(UTPSSh) =  -1721.77549452     A.U. after   22 cycles
 SCF Done:  E(UTPSSh) =  -1721.77187936     A.U. after   24 cycles
 SCF Done:  E(UTPSSh) =  -1721.77550385     A.U. after    6 cycles
 SCF Done:  E(UTPSSh) =  -1721.77550938     A.U. after   22 cycles
 SCF Done:  E(UTPSSh) =  -1721.77551087     A.U. after   22 cycles
 SCF Done:  E(UTPSSh) =  -1721.77551362     A.U. after   17 cycles
 Optimization completed.
    -- Stationary point found.
 Normal termination of Gaussian 16 at Wed Mar  5 20:57:37 2025.

 ----------------------------------------------------------------------
 #P Geom=AllCheck Guess=TCheck SCRF=Check Test GenChk UTPSSh/6-31+G(2df
 ,p) Freq
 ----------------------------------------------------------------------

 Structure from the checkpoint file:  "Fe_2_TPSSh.chk"
 -----
 Title
 -----
 Charge =  2 Multiplicity = 5

 SCF Done:  E(UTPSSh) =  -1721.77551362     A.U. after    1 cycles

  Exact polarizability:      57.652      -0.299      58.134      -0.234      -0.105      59.010
 Approx polarizability:      72.203      -0.693      73.328      -0.102      -0.020      75.624

                      1                      2                      3
                      A                      A                      A
 Frequencies --     71.2740                74.8059                85.1887
 Red. masses --      3.8635                 5.3697                 5.4108
 Frc consts  --      0.0116                 0.0177                 0.0231
 IR Inten    --      0.0000                 5.6917                 6.9784

                      4                      5                      6
                      A                      A                      A
 Frequencies --     85.4463                86.3030               106.3179
 Red. masses --      6.3178                 5.2254                 4.9303
 Frc consts  --      0.0272                 0.0229                 0.0328
 IR Inten    --     10.7097                 0.0004                 0.0000

                      7                      8                      9
                      A                      A                      A
 Frequencies --    108.8119               118.4541               120.5164
 Red. masses --      2.9637                 1.1265                 5.3447
 Frc consts  --      0.0207                 0.0093                 0.0457
 IR Inten    --      1.2446                 0.0003                 3.9817

                     10                     11                     12
                      A                      A                      A
 Frequencies --    127.1625               170.3026               192.9552
 Red. masses --      5.1311                 5.4833                 1.0831
 Frc consts  --      0.0489                 0.0937                 0.0238
 IR Inten    --      0.9459                 0.0000                 6.6694

                     13                     14                     15
                      A                      A                      A
 Frequencies --    240.5327               241.4604               277.2578
 Red. masses --      1.1362                 3.3380                 1.0682
 Frc consts  --      0.0387                 0.1147                 0.0484
 IR Inten    --      2.7377                 0.0001                 0.0003

                     16                     17                     18
                      A                      A                      A
 Frequencies --    280.6286               291.0372               308.7081
 Red. masses --      1.1910                 1.6507                 3.7700
 Frc consts  --      0.0553                 0.0824                 0.2117
 IR Inten    --      0.0012               178.1196                34.9593

                     19                     20                     21
                      A                      A                      A
 Frequencies --    314.0559               322.3452               334.9163
 Red. masses --      1.9994                 1.0808                 5.7737
 Frc consts  --      0.1162                 0.0662                 0.3816
 IR Inten    --    119.2765                 0.0001                 0.0000

                     22                     23                     24
                      A                      A                      A
 Frequencies --    345.2263               348.7683               358.0944
 Red. masses --      1.7986                 1.0615                 1.7453
 Frc consts  --      0.1263                 0.0761                 0.1319
 IR Inten    --    235.4662                 0.0332               245.6658

                     25                     26                     27
                      A                      A                      A
 Frequencies --    358.2089               378.0969               417.9339
 Red. masses --      1.1121                 1.3171                 1.0232
 Frc consts  --      0.0841                 0.1109                 0.1053
 IR Inten    --      0.0280               396.3128                 2.0395

                     28                     29                     30
                      A                      A                      A
 Frequencies --    500.9218               520.4552               523.3999
 Red. masses --      1.1459                 1.1602                 1.2185
 Frc consts  --      0.1694                 0.1852                 0.1967
 IR Inten    --      0.0002                 0.0660               219.6346

                     31                     32                     33
                      A                      A                      A
 Frequencies --    525.2693               544.3997               551.6898
 Red. masses --      1.1516                 1.2239                 1.2299
 Frc consts  --      0.1872                 0.2137                 0.2206
 IR Inten    --      0.0022               256.2785               201.6480

                     34                     35                     36
                      A                      A                      A
 Frequencies --   1650.7525              1651.9154              1653.0716
 Red. masses --      1.0953                 1.0914                 1.0915
 Frc consts  --      1.7585                 1.7548                 1.7574
 IR Inten    --      0.0148               214.5883               198.8736

                     37                     38                     39
                      A                      A                      A
 Frequencies --   1654.4355              1656.7384              1663.8310
 Red. masses --      1.0923                 1.0905                 1.0842
 Frc consts  --      1.7616                 1.7635                 1.7684
 IR Inten    --      0.0010               196.2201                 0.0001

                     40                     41                     42
                      A                      A                      A
 Frequencies --   3722.2599              3723.0799              3727.0483
 Red. masses --      1.0438                 1.0438                 1.0434
 Frc consts  --      8.5209                 8.5244                 8.5396
 IR Inten    --    207.7420                 0.1095                 0.0469

                     43                     44                     45
                      A                      A                      A
 Frequencies --   3730.2138              3730.4885              3734.1210
 Red. masses --      1.0441                 1.0441                 1.0446
 Frc consts  --      8.5598                 8.5608                 8.5820
 IR Inten    --    190.9481               215.3198                 0.0466

                     46                     47                     48
                      A                      A                      A
 Frequencies --   3814.4814              3814.9945              3821.6340
 Red. masses --      1.0846                 1.0846                 1.0843
 Frc consts  --      9.2977                 9.3002                 9.3302
 IR Inten    --      0.4248               358.5753                 0.0577

                     49                     50                     51
                      A                      A                      A
 Frequencies --   3821.9514              3823.2628              3823.7544
 Red. masses --      1.0843                 1.0843                 1.0844
 Frc consts  --      9.3316                 9.3382                 9.3413
 IR Inten    --    306.1388                10.4675               382.2646

 - Thermochemistry -
 -------------------
 Temperature   298.150 Kelvin.  Pressure   1.00000 Atm.
 Atom     1 has atomic number 26 and mass  55.93494

 Molecular mass:   163.99833 amu.
 Principal axes and moments of inertia in atomic units:
                           1         2         3
     Eigenvalues --  1259.627811261.458761288.19695
           X            0.99493  -0.10042  -0.00450
           Y            0.10041   0.99494  -0.00252
           Z            0.00473   0.00205   0.99999
 This molecule is an asymmetric top.
 Rotational symmetry number  1.
 Warning -- assumption of classical behavior for rotation
           may cause significant error
 Rotational temperatures (Kelvin)      0.06876     0.06866     0.06724
 Rotational constants (GHZ):           1.43276     1.43068     1.40098
 Zero-point vibrational energy     386088.6 (Joules/Mol)
                                   92.27740 (Kcal/Mol)
 Warning -- explicit consideration of  33 degrees of freedom as
           vibrations may cause significant error
 Vibrational temperatures:    102.55   107.63   122.57   122.94   124.17
          (Kelvin)            152.97   156.56   170.43   173.40   182.96
                              245.03   277.62   346.07   347.41   398.91
                              403.76   418.74   444.16   451.86   463.78
                              481.87   496.70   501.80   515.22   515.38
                              544.00   601.31   720.71   748.82   753.06
                              755.75   783.27   793.76  2375.06  2376.74
                             2378.40  2380.36  2383.68  2393.88  5355.50
                             5356.68  5362.39  5366.95  5367.34  5372.57
                             5488.19  5488.93  5498.48  5498.94  5500.82
                             5501.53

 Zero-point correction=                           0.147053 (Hartree/Particle)
 Thermal correction to Energy=                    0.165658
 Thermal correction to Enthalpy=                  0.166603
 Thermal correction to Gibbs Free Energy=         0.101548
 Sum of electronic and zero-point Energies=          -1721.628460
 Sum of electronic and thermal Energies=             -1721.609855
 Sum of electronic and thermal Enthalpies=           -1721.608911
 Sum of electronic and thermal Free Energies=        -1721.673965

                     E (Thermal)             CV                S
                      KCal/Mol        Cal/Mol-Kelvin    Cal/Mol-Kelvin
 Total                  103.952             61.010            136.918
 Electronic               0.000              0.000              3.198
 Translational            0.889              2.981             41.193
 Rotational               0.889              2.981             29.105
 Vibrational            102.175             55.049             63.422
 Vibration     1          0.598              1.968              4.118
 Vibration     2          0.599              1.966              4.023
 Vibration     3          0.601              1.959              3.768
 Vibration     4          0.601              1.959              3.762
 Vibration     5          0.601              1.959              3.742
 Vibration     6          0.605              1.944              3.335
 Vibration     7          0.606              1.942              3.290
 Vibration     8          0.609              1.934              3.125
 Vibration     9          0.609              1.932              3.092
 Vibration    10          0.611              1.926              2.989
 Vibration    11          0.625              1.879              2.432
 Vibration    12          0.635              1.850              2.199
 Vibration    13          0.658              1.778              1.799
 Vibration    14          0.658              1.777              1.792
 Vibration    15          0.678              1.716              1.551
 Vibration    16          0.680              1.709              1.530
 Vibration    17          0.687              1.690              1.468
 Vibration    18          0.698              1.657              1.369
 Vibration    19          0.702              1.647              1.341
 Vibration    20          0.707              1.631              1.298
 Vibration    21          0.716              1.606              1.236
 Vibration    22          0.724              1.585              1.188
 Vibration    23          0.726              1.578              1.172
 Vibration    24          0.733              1.559              1.130
 Vibration    25          0.733              1.558              1.130
 Vibration    26          0.748              1.517              1.047
 Vibration    27          0.781              1.431              0.899
 Vibration    28          0.856              1.248              0.656
 Vibration    29          0.875              1.205              0.609
 Vibration    30          0.878              1.198              0.602
 Vibration    31          0.880              1.194              0.598
 Vibration    32          0.900              1.152              0.556
 Vibration    33          0.907              1.136              0.541

 Optimization completed.
    -- Stationary point found.
 Normal termination of Gaussian 16 at Wed Mar  5 20:59:55 2025.
 Gaussian 16:  ES64L-G16RevC.02  7-Dec-2021

 ----------------------------------------------------------------------
 #p TPSSH scrf=(cpcm,solvent=water) geom=allcheck guess=read chkbasis I
 Op(3/174=1000000) IOp(3/175=1219000) IOp(3/176=1223000)
 ----------------------------------------------------------------------

 Structure from the checkpoint file:  "Fe_2_TPSSh.chk_solvated"
 -----
 Title
 -----
 Charge =  2 Multiplicity = 5

                         Standard orientation:
 ---------------------------------------------------------------------
 Center     Atomic      Atomic             Coordinates (Angstroms)
 Number     Number       Type             X           Y           Z
 ---------------------------------------------------------------------
      1         26           0       -0.000015    0.000009   -0.000000
      2          8           0        1.721549    0.819921    0.975928
      3          1           0        1.855834    0.887470    1.933319
      4          8           0       -0.925090    1.939708   -0.001793
      5          1           0       -1.699310    2.209962   -0.518199
      6          8           0        0.902732    0.427607   -1.860451
      7          1           0        1.514278   -0.146223   -2.347088
      8          8           0       -1.721498   -0.820036   -0.975944
      9          1           0       -2.509745   -1.190967   -0.551511
     10          8           0        0.925101   -1.939684    0.001820
     11          1           0        1.699503   -2.209802    0.518021
     12          8           0       -0.902739   -0.427605    1.860451
     13          1           0       -1.514146    0.146258    2.347220
     14          1           0       -0.845968   -1.264023    2.347570
     15          1           0       -0.646820    2.713483    0.511006
     16          1           0        2.509392    1.191726    0.551451
     17          1           0        0.646744   -2.713539   -0.510812
     18          1           0        0.845829    1.263937   -2.347712
     19          1           0       -1.855642   -0.887809   -1.933341
 ---------------------------------------------------------------------

 SCF Done:  E(UTPSSh) =  -1722.05132230     A.U. after   20 cycles

 The electronic state is 5-A.
 Alpha  occ. eigenvalues -- -255.89964 -29.97126 -25.82512 -25.79515 -25.79481
 Alpha  occ. eigenvalues --  -19.14042 -19.14042 -19.13665 -19.13665 -19.13367
 Alpha  occ. eigenvalues --  -19.13366  -3.54181  -2.35750  -2.29498  -2.29437
 Alpha  occ. eigenvalues --   -1.05667  -1.05292  -1.04974  -1.04940  -1.04623
 Alpha  occ. eigenvalues --   -1.04567  -0.57232  -0.57089  -0.56940  -0.56848
 Alpha  occ. eigenvalues --   -0.56463  -0.56426  -0.50963  -0.48687  -0.47897
 Alpha  occ. eigenvalues --   -0.46615  -0.46249  -0.45750  -0.38288  -0.38269
 Alpha  occ. eigenvalues --   -0.35974  -0.35713  -0.35538  -0.35224  -0.32725
 Alpha  occ. eigenvalues --   -0.32467  -0.29116  -0.28029  -0.27779
 Alpha virt. eigenvalues --   -0.05192  -0.00922  -0.00841  -0.00825   0.04010
 Alpha virt. eigenvalues --    0.04913   0.05009   0.08635   0.08883   0.09138
 Alpha virt. eigenvalues --    0.09347   0.09628   0.10031   0.13118   0.14882

  Beta  occ. eigenvalues -- -255.89883 -29.90394 -25.75898 -25.74364 -25.74348
  Beta  occ. eigenvalues --  -19.13903 -19.13903 -19.13552 -19.13552 -19.13254
  Beta  occ. eigenvalues --  -19.13254  -3.36197  -2.13540  -2.12664  -2.12632
  Beta  occ. eigenvalues --   -1.05442  -1.05060  -1.04785  -1.04729  -1.04449
  Beta  occ. eigenvalues --   -1.04380  -0.57087  -0.56971  -0.56749  -0.56722
  Beta  occ. eigenvalues --   -0.56322  -0.56316  -0.50112  -0.46087  -0.46011
  Beta  occ. eigenvalues --   -0.45751  -0.45376  -0.45300  -0.35978  -0.35954
  Beta  occ. eigenvalues --   -0.35596  -0.35296  -0.35115  -0.34979  -0.21341
  Beta virt. eigenvalues --   -0.11418  -0.10573  -0.07303  -0.04851  -0.03822
  Beta virt. eigenvalues --   -0.00791  -0.00721  -0.00715   0.04363   0.05455
  Beta virt. eigenvalues --    0.05708   0.08893   0.09146   0.09434   0.09471

 Mulliken charges and spin densities:
               1          2
     1  Fe   1.091458   3.866476
     2  O   -0.687341   0.012007
     3  H    0.418909   0.003376
     4  O   -0.682618   0.015202
     5  H    0.415519   0.002855
     6  O   -0.687129   0.021377
     7  H    0.420713   0.002670
     8  O   -0.687336   0.012008
     9  H    0.419828   0.003740
    10  O   -0.682633   0.015198
    11  H    0.415520   0.002856
    12  O   -0.687126   0.021378
    13  H    0.420713   0.002670
    14  H    0.420740   0.002668
    15  H    0.415648   0.002867
    16  H    0.419834   0.003740
    17  H    0.415651   0.002867
    18  H    0.420741   0.002669
    19  H    0.418908   0.003376
 Sum of Mulliken charges =   2.00000   4.00000

 Dipole moment (field-independent basis, Debye):
    X=             -0.0004    Y=              0.0013    Z=             -0.0002  Tot=              0.0014
 Quadrupole moment (field-independent basis, Debye-Ang):
   XX=            -15.6730   YY=            -16.0066   ZZ=            -15.2007
   XY=              0.1907   XZ=             -0.1643   YZ=             -0.0736

 Normal termination of Gaussian 16 at Wed Mar  5 21:00:36 2025.
