 Gaussian 16, Revision C.02,

 ----------------------------------------------------------------------
 #p B3LYP empiricaldispersion=gd3 6-31+G(2df,p) opt=(cartesian,calcall,
 maxcycles=500) freq scf=(maxcycles=500,xqc,maxconventional=50)
 ----------------------------------------------------------------------

 -----
 Title
 -----
 Symbolic Z-matrix:
 Charge =  3 Multiplicity = 2

 SCF Done:  E(UB3LYP) =  -1306.84427417     A.U. after   21 cycles
 SCF Done:  E(UB3LYP) =  -1306.88258015     A.U. after   22 cycles
 SCF Done:  E(UB3LYP) =  -1306.94582384     A.U. after   20 cycles
 SCF Done:  E(UB3LYP) =  -1307.00295309     A.U. after   21 cycles
 SCF Done:  E(UB3LYP) =  -1307.03619235     A.U. after   22 cycles
 SCF Done:  E(UB3LYP) =  -1307.06669113     A.U. after   22 cycles
 SCF Done:  E(UB3LYP) =  -1307.09693641     A.U. after   22 cycles
 SCF Done:  E(UB3LYP) =  -1307.12124788     A.U. after   22 cycles
 SCF Done:  E(UB3LYP) =  -1307.13228336     A.U. after   23 cycles
 SCF Done:  E(UB3LYP) =  -1307.14084608     A.U. after   22 cycles
 SCF Done:  E(UB3LYP) =  -1307.15288940     A.U. after   13 cycles
 SCF Done:  E(UB3LYP) =  -1307.15298907     A.U. after   21 cycles
 SCF Done:  E(UB3LYP) =  -1307.15326173     A.U. after   21 cycles
 SCF Done:  E(UB3LYP) =  -1307.15329331     A.U. after   15 cycles
 SCF Done:  E(UB3LYP) =  -1307.15329562     A.U. after   14 cycles
 SCF Done:  E(UB3LYP) =  -1307.15329319     A.U. after   13 cycles
 SCF Done:  E(UB3LYP) =  -1307.15329276     A.U. after   14 cycles
 SCF Done:  E(UB3LYP) =  -1307.15329483     A.U. after   12 cycles
 Optimization completed.
    -- Stationary point found.
 Normal termination of Gaussian 16 at Thu May 23 17:07:46 2024.

 ----------------------------------------------------------------------
 #P Geom=AllCheck Guess=TCheck SCRF=Check GenChk UB3LYP/6-31+G(2df,p) F
 req
 ----------------------------------------------------------------------

 Structure from the checkpoint file:  "Ti_3_B3LYP.chk"
 -----
 Title
 -----
 Charge =  3 Multiplicity = 2

 SCF Done:  E(UB3LYP) =  -1307.15329483     A.U. after    1 cycles

  Exact polarizability:      59.302       0.004      59.296      -0.001      -0.007      60.262
 Approx polarizability:      75.186       0.005      75.179       0.001      -0.014      78.624

                      1                      2                      3
                      A                      A                      A
 Frequencies --     99.9497               109.8840               110.6594
 Red. masses --      4.7548                 4.4198                 4.4248
 Frc consts  --      0.0280                 0.0314                 0.0319
 IR Inten    --      0.5448                 0.7595                 0.7426

                      4                      5                      6
                      A                      A                      A
 Frequencies --    154.9062               155.1258               160.2701
 Red. masses --      4.7454                 4.7473                 3.5236
 Frc consts  --      0.0671                 0.0673                 0.0533
 IR Inten    --      0.0001                 0.0000                 0.0001

                      7                      8                      9
                      A                      A                      A
 Frequencies --    168.6609               168.8678               170.1940
 Red. masses --      3.7668                 3.7960                 4.4870
 Frc consts  --      0.0631                 0.0638                 0.0766
 IR Inten    --      0.5379                 0.5106                 0.3753

                     10                     11                     12
                      A                      A                      A
 Frequencies --    242.1713               243.5969               256.0850
 Red. masses --      1.1757                 1.1770                 1.0913
 Frc consts  --      0.0406                 0.0411                 0.0422
 IR Inten    --      0.0006                 0.0004                 2.4796

                     13                     14                     15
                      A                      A                      A
 Frequencies --    256.3996               258.1298               345.1974
 Red. masses --      1.0889                 1.0661                 3.4172
 Frc consts  --      0.0422                 0.0419                 0.2399
 IR Inten    --      2.4641                 0.0066                 0.0000

                     16                     17                     18
                      A                      A                      A
 Frequencies --    345.2999               400.2737               420.2267
 Red. masses --      3.4219                 1.4183                 6.0044
 Frc consts  --      0.2404                 0.1339                 0.6247
 IR Inten    --      0.0000                27.5862                 0.0000

                     19                     20                     21
                      A                      A                      A
 Frequencies --    431.7939               437.2694               437.2715
 Red. masses --      2.2139                 4.6176                 4.6155
 Frc consts  --      0.2432                 0.5202                 0.5200
 IR Inten    --      0.0593                 1.4966                 1.6236

                     22                     23                     24
                      A                      A                      A
 Frequencies --    502.6848               542.8703               543.2023
 Red. masses --      1.1711                 1.1405                 1.1406
 Frc consts  --      0.1744                 0.1980                 0.1983
 IR Inten    --      0.0021                 0.0077                 0.0322

                     25                     26                     27
                      A                      A                      A
 Frequencies --    554.8526               555.0323               555.3624
 Red. masses --      1.1623                 1.2078                 1.1960
 Frc consts  --      0.2108                 0.2192                 0.2173
 IR Inten    --    246.3033               497.9285               438.4041

                     28                     29                     30
                      A                      A                      A
 Frequencies --    631.4042               631.7079               659.1838
 Red. masses --      1.1397                 1.1393                 1.2672
 Frc consts  --      0.2677                 0.2679                 0.3244
 IR Inten    --      0.0033                 0.0034               323.4853

                     31                     32                     33
                      A                      A                      A
 Frequencies --    659.3525               666.0156               687.3361
 Red. masses --      1.2675                 1.1573                 1.2757
 Frc consts  --      0.3247                 0.3024                 0.3551
 IR Inten    --    324.5770                 0.0046               335.9934

                     34                     35                     36
                      A                      A                      A
 Frequencies --   1663.6618              1663.7511              1665.7155
 Red. masses --      1.0891                 1.0891                 1.0887
 Frc consts  --      1.7760                 1.7762                 1.7797
 IR Inten    --    271.5756               271.3782                 0.0059

                     37                     38                     39
                      A                      A                      A
 Frequencies --   1665.7948              1668.4035              1679.3440
 Red. masses --      1.0886                 1.0893                 1.0801
 Frc consts  --      1.7798                 1.7865                 1.7947
 IR Inten    --      0.0071               234.0158                 0.0003

                     40                     41                     42
                      A                      A                      A
 Frequencies --   3635.5140              3635.6025              3641.1670
 Red. masses --      1.0435                 1.0435                 1.0441
 Frc consts  --      8.1263                 8.1267                 8.1563
 IR Inten    --      0.1700                 0.0215               622.1387

                     43                     44                     45
                      A                      A                      A
 Frequencies --   3641.2993              3641.3489              3663.5296
 Red. masses --      1.0441                 1.0442                 1.0462
 Frc consts  --      8.1569                 8.1573                 8.2728
 IR Inten    --    635.6864               677.2260                 0.0036

                     46                     47                     48
                      A                      A                      A
 Frequencies --   3706.8599              3706.9568              3707.4958
 Red. masses --      1.0840                 1.0840                 1.0841
 Frc consts  --      8.7762                 8.7766                 8.7801
 IR Inten    --      5.9784                 1.0769               381.1828

                     49                     50                     51
                      A                      A                      A
 Frequencies --   3707.5741              3709.3513              3710.1650
 Red. masses --      1.0841                 1.0841                 1.0841
 Frc consts  --      8.7805                 8.7885                 8.7925
 IR Inten    --    385.7523                 3.5398               938.2903

 - Thermochemistry -
 -------------------
 Temperature   298.150 Kelvin.  Pressure   1.00000 Atm.
 Atom     1 has atomic number 22 and mass  47.94795

 Molecular mass:   156.01133 amu.
 Principal axes and moments of inertia in atomic units:
                           1         2         3
     Eigenvalues --  1206.827171207.084261248.99601
           X            1.00000  -0.00158   0.00015
           Y            0.00158   1.00000  -0.00017
           Z           -0.00015   0.00017   1.00000
 This molecule is an asymmetric top.
 Rotational symmetry number  1.
 Warning -- assumption of classical behavior for rotation
           may cause significant error
 Rotational temperatures (Kelvin)      0.07177     0.07175     0.06935
 Rotational constants (GHZ):           1.49544     1.49512     1.44495
 Zero-point vibrational energy     398803.7 (Joules/Mol)
                                   95.31637 (Kcal/Mol)
 Warning -- explicit consideration of  27 degrees of freedom as
           vibrations may cause significant error
 Vibrational temperatures:    143.81   158.10   159.21   222.88   223.19
          (Kelvin)            230.59   242.67   242.96   244.87   348.43
                              350.48   368.45   368.90   371.39   496.66
                              496.81   575.90   604.61   621.26   629.13
                              629.14   723.25   781.07   781.55   798.31
                              798.57   799.04   908.45   908.89   948.42
                              948.66   958.25   988.92  2393.64  2393.77
                             2396.59  2396.71  2400.46  2416.20  5230.69
                             5230.82  5238.83  5239.02  5239.09  5271.00
                             5333.34  5333.48  5334.26  5334.37  5336.93
                             5338.10

 Zero-point correction=                           0.151896 (Hartree/Particle)
 Thermal correction to Energy=                    0.167182
 Thermal correction to Enthalpy=                  0.168127
 Thermal correction to Gibbs Free Energy=         0.112326
 Sum of electronic and zero-point Energies=          -1307.001399
 Sum of electronic and thermal Energies=             -1306.986112
 Sum of electronic and thermal Enthalpies=           -1306.985168
 Sum of electronic and thermal Free Energies=        -1307.040969

                     E (Thermal)             CV                S
                      KCal/Mol        Cal/Mol-Kelvin    Cal/Mol-Kelvin
 Total                  104.909             54.852            117.443
 Electronic               0.000              0.000              1.377
 Translational            0.889              2.981             41.044
 Rotational               0.889              2.981             28.988
 Vibrational            103.131             48.890             46.034
 Vibration     1          0.604              1.949              3.455
 Vibration     2          0.606              1.941              3.271
 Vibration     3          0.606              1.941              3.257
 Vibration     4          0.620              1.897              2.611
 Vibration     5          0.620              1.897              2.608
 Vibration     6          0.622              1.891              2.547
 Vibration     7          0.625              1.881              2.450
 Vibration     8          0.625              1.881              2.448
 Vibration     9          0.625              1.879              2.433
 Vibration    10          0.658              1.776              1.787
 Vibration    11          0.659              1.773              1.776
 Vibration    12          0.666              1.753              1.688
 Vibration    13          0.666              1.752              1.686
 Vibration    14          0.667              1.749              1.674
 Vibration    15          0.724              1.585              1.188
 Vibration    16          0.724              1.585              1.188
 Vibration    17          0.766              1.470              0.962
 Vibration    18          0.783              1.426              0.891
 Vibration    19          0.793              1.401              0.853
 Vibration    20          0.798              1.389              0.835
 Vibration    21          0.798              1.389              0.835
 Vibration    22          0.858              1.244              0.651
 Vibration    23          0.898              1.155              0.559
 Vibration    24          0.898              1.155              0.558
 Vibration    25          0.910              1.129              0.534
 Vibration    26          0.910              1.129              0.534
 Vibration    27          0.911              1.128              0.533

 Normal termination of Gaussian 16 at Thu May 23 17:09:39 2024.
 Gaussian 16:  ES64L-G16RevC.02  7-Dec-2021

 ----------------------------------------------------------------------
 #p B3LYP empiricaldispersion=gd3 scf=(maxcycles=500,xqc,maxconventiona
 l=50) scrf=(cpcm,solvent=water) geom=allcheck guess=read chkbasis
 ----------------------------------------------------------------------

 Structure from the checkpoint file:  "Ti_3_B3LYP.chk_solvated"
 -----
 Title
 -----
 Charge =  3 Multiplicity = 2

                         Standard orientation:
 ---------------------------------------------------------------------
 Center     Atomic      Atomic             Coordinates (Angstroms)
 Number     Number       Type             X           Y           Z
 ---------------------------------------------------------------------
      1         22           0        0.000017    0.000037   -0.000201
      2          8           0        1.608459    0.632865    1.173719
      3          1           0        2.552818    0.603253    0.926231
      4          8           0       -0.255755   -1.708780    1.174185
      5          1           0       -0.754414   -2.511482    0.927279
      6          8           0       -1.352753    1.075284    1.174243
      7          1           0       -1.798979    1.908378    0.927710
      8          8           0       -1.608635   -0.631163   -1.174457
      9          1           0       -1.572718   -1.040471   -2.060269
     10          8           0        0.257558    1.709373   -1.173180
     11          1           0       -0.116772    1.885184   -2.057761
     12          8           0        1.351074   -1.077611   -1.174216
     13          1           0        1.796498   -1.910821   -0.926620
     14          1           0        1.688398   -0.841735   -2.059696
     15          1           0        0.118985   -1.882885    2.058915
     16          1           0        1.572246    1.042662    2.059288
     17          1           0        0.757433    2.510989   -0.925132
     18          1           0       -1.690493    0.837471    2.059032
     19          1           0       -2.552961   -0.601112   -0.926914
 ---------------------------------------------------------------------

 SCF Done:  E(UB3LYP) =  -1307.78773711     A.U. after   15 cycles

 The electronic state is 2-A.
 Alpha  occ. eigenvalues -- -179.02790 -20.07183 -19.26543 -19.26541 -19.26537
 Alpha  occ. eigenvalues --  -19.26535 -19.26530 -19.26529 -16.78810 -16.78803
 Alpha  occ. eigenvalues --  -16.77757  -2.53057  -1.64098  -1.64097  -1.63640
 Alpha  occ. eigenvalues --   -1.12649  -1.11862  -1.11856  -1.11788  -1.11782
 Alpha  occ. eigenvalues --   -1.11681  -0.63968  -0.63300  -0.63167  -0.63159
 Alpha  occ. eigenvalues --   -0.63120  -0.63111  -0.57773  -0.55814  -0.55806
 Alpha  occ. eigenvalues --   -0.53371  -0.53366  -0.52991  -0.44314  -0.44307
 Alpha  occ. eigenvalues --   -0.42921  -0.42914  -0.42769  -0.42523  -0.31183
 Alpha virt. eigenvalues --   -0.18004  -0.17999  -0.10691  -0.10674  -0.06199
 Alpha virt. eigenvalues --   -0.02342  -0.02326  -0.02322   0.02441   0.03029
 Alpha virt. eigenvalues --    0.03037   0.06554   0.06685   0.07280   0.07282

  Beta  occ. eigenvalues -- -179.02780 -20.06049 -19.26551 -19.26549 -19.26545
  Beta  occ. eigenvalues --  -19.26542 -19.26537 -19.26536 -16.78187 -16.78174
  Beta  occ. eigenvalues --  -16.76114  -2.49232  -1.61501  -1.61472  -1.56663
  Beta  occ. eigenvalues --   -1.12638  -1.11859  -1.11852  -1.11774  -1.11768
  Beta  occ. eigenvalues --   -1.11637  -0.63810  -0.63261  -0.63137  -0.63129
  Beta  occ. eigenvalues --   -0.63086  -0.63078  -0.57670  -0.55695  -0.55687
  Beta  occ. eigenvalues --   -0.53390  -0.53385  -0.52934  -0.44216  -0.44208
  Beta  occ. eigenvalues --   -0.42909  -0.42901  -0.42753  -0.42139
  Beta virt. eigenvalues --   -0.16124  -0.16120  -0.12751  -0.09313  -0.09302
  Beta virt. eigenvalues --   -0.06136  -0.02314  -0.02311  -0.02304   0.02466
  Beta virt. eigenvalues --    0.03140   0.03148   0.06716   0.06771   0.07315

 Mulliken charges and spin densities:
               1          2
     1  Ti   1.728511   1.016347
     2  O   -0.666314  -0.005187
     3  H    0.436541   0.001337
     4  O   -0.666598  -0.005267
     5  H    0.436622   0.001356
     6  O   -0.666291  -0.005202
     7  H    0.436538   0.001331
     8  O   -0.665882  -0.005198
     9  H    0.441574   0.001158
    10  O   -0.666187  -0.005258
    11  H    0.441673   0.001167
    12  O   -0.666143  -0.005235
    13  H    0.436499   0.001336
    14  H    0.441574   0.001152
    15  H    0.441680   0.001165
    16  H    0.441619   0.001159
    17  H    0.436578   0.001350
    18  H    0.441550   0.001147
    19  H    0.436457   0.001343
 Sum of Mulliken charges =   3.00000   1.00000

 Dipole moment (field-independent basis, Debye):
    X=              0.0005    Y=             -0.0004    Z=              0.0004  Tot=              0.0008
 Quadrupole moment (field-independent basis, Debye-Ang):
   XX=             -7.8504   YY=             -7.8778   ZZ=             -6.0690
   XY=             -0.0077   XZ=              0.0066   YZ=             -0.0144

 Normal termination of Gaussian 16 at Thu May 23 17:10:08 2024.
