   * xtb version 6.6.0 (conda-forge) compiled by 'runner@Mac-1676020848589.local' on 2023-02-10
          program call               : xtb Fe_18H2O.xyz --opt extreme --gfn2 --chrg 2 --uhf 5 --alpb water

   ID    Z sym.   atoms
    1   26 Fe     1
    2    8 O      2-7, 20-31
    3    1 H      8-19, 32-55

      * Solvation model:               ALPB
        Solvent                        water
        Solvent mass                       1.8000E+01 g/mol
          :  Hamiltonian                  GFN2-xTB          :
 * total energy  :   -94.2702411 Eh     change       -0.4091021E-09 Eh
 * total energy  :   -94.2897501 Eh     change       -0.1950893E-01 Eh
 * total energy  :   -94.2968655 Eh     change       -0.7115456E-02 Eh
 * total energy  :   -94.2990838 Eh     change       -0.2218308E-02 Eh
 * total energy  :   -94.2999703 Eh     change       -0.8864684E-03 Eh
 * total energy  :   -94.3004906 Eh     change       -0.5203280E-03 Eh
 * total energy  :   -94.3009617 Eh     change       -0.4711106E-03 Eh
 * total energy  :   -94.3012994 Eh     change       -0.3377202E-03 Eh
 * total energy  :   -94.3016915 Eh     change       -0.3920402E-03 Eh
 * total energy  :   -94.3020175 Eh     change       -0.3260101E-03 Eh
 * total energy  :   -94.3457429 Eh     change        0.8793540E-07 Eh
 * total energy  :   -94.3457431 Eh     change       -0.2092337E-06 Eh
 * total energy  :   -94.3457431 Eh     change       -0.5263495E-07 Eh
 * total energy  :   -94.3457431 Eh     change       -0.1213222E-07 Eh
 * total energy  :   -94.3457431 Eh     change       -0.7397190E-08 Eh
 * total energy  :   -94.3457432 Eh     change       -0.7878910E-08 Eh
 * total energy  :   -94.3457432 Eh     change       -0.5264366E-07 Eh
 * total energy  :   -94.3457432 Eh     change        0.5698737E-08 Eh
 * total energy  :   -94.3457432 Eh     change       -0.1472660E-07 Eh
   *** GEOMETRY OPTIMIZATION CONVERGED AFTER 230 ITERATIONS ***

 final structure:
================
55
 xtb: 6.6.0 (conda-forge)
Fe          -0.38307401298901       -0.06955731985513       -0.56500642616447
O           -2.23843538403137       -0.91883105850332        0.90298699267702
O            0.50481449075927        1.58052356549178        0.99885293722516
O            1.92878690579101        0.00581677222496       -1.41194303836649
O           -1.51652248876872       -0.37898110541800       -2.78375978309365
O           -2.18660610585153        1.59069078930336       -0.59522598242017
O            0.44540775645358       -1.43587117661299        1.34398879444532
H           -2.69653006213111        1.85043700236474        0.19055873800613
H           -2.04852640231477        2.38624645282170       -1.10769184100061
H            0.44623388856057       -0.99829985756166        2.20886451963144
H            1.36271654019851       -1.72229982906367        1.21055867348874
H           -2.16069305644649       -0.23203278923040        1.59506921301877
H           -2.07069782885011       -1.75200039682898        1.34636509938929
H            2.58872746399764        0.57452970715505       -0.98490169119084
H            2.34221620074915       -0.85090782869500       -1.57911220751709
H            0.73463993293394        2.43164448192997        0.60055164189428
H            1.33434674792416        1.22624734130118        1.37932348900698
H           -2.42718066608160       -0.37691385176191       -2.44409090411440
H           -1.40803892116547       -1.22695905751291       -3.21953883391429
O           -1.46435174134420        0.94739871849836        2.70644891485729
O            3.10262532813196       -2.08024112728143        0.94256228163570
O           -3.79908772955904       -0.88793641841180       -1.33482523698252
O           -0.21452374532051       -2.53194575609601       -1.10447752478873
O           -3.48835252638808        2.44418494426703        1.68182054173459
O           -2.55314428476282       -3.13407812431561       -2.35320965991829
O            0.90948286356532       -0.17178988909900        3.80136568514384
O            2.85511278387110        0.55305747585469        1.88867660998447
O            1.34539364581856        3.58001842405426       -0.70593783946850
O            0.15668372008639        1.78878775249229       -2.37036748608053
O            3.55453212191517        1.99363716423600       -0.35130573499589
O            2.43901277418074       -2.69344973501569       -1.63594393381094
H           -3.12561765848208       -2.42454115814025       -2.00711466670325
H           -3.09377273327992       -3.92021901748106       -2.43381389219196
H           -0.94775598576774        0.57113599018945        3.42770071433579
H           -0.78873390256690        1.29928832221324        2.08440662450274
H           -3.46803805184195        3.35242737227850        1.98857412662826
H           -2.88359348947777        1.94020432310513        2.25862009605129
H            0.95014685183026        1.27242597182559       -2.56617243217061
H           -0.51336942765938        1.50068712071242       -2.99731494388929
H           -4.56924185737603       -0.32298809804147       -1.26645431267304
H           -3.32449630049127       -0.81833176654787       -0.48189021228304
H           -1.00129889925974       -2.84145354898324       -1.59026150614600
H           -0.25739775879673       -2.92474412628614       -0.22805704817775
H            2.66432940986342       -3.29435034957542       -2.34666548246791
H            1.46083672560419       -2.70648594732077       -1.53370267248392
H            4.32612899437245        2.36788488047375       -0.77735281177963
H            2.82544719159997        2.64035464921905       -0.44906783612068
H            1.22662523226376        4.50366758064608       -0.92949507606631
H            0.87282864999788        3.04692424533638       -1.37675765306200
H            3.32572516783045        1.12737810911538        1.26421724609870
H            2.98971275951495       -0.34995713065432        1.55226677770518
H            1.25313696068776       -0.60050034267300        4.58592774908678
H            1.66194309412335        0.25423360360452        3.35796430584373
H            3.62371630839737       -2.76863748630502        1.35739410397256
H            3.00284050983189       -2.31921846654648        0.00072279391681

          :  Hamiltonian                  GFN2-xTB          :
         :: total energy             -94.345743213983 Eh    ::
         :: gradient norm              0.000051597817 Eh/a0 ::
         :: HOMO-LUMO gap              7.081317569623 eV    ::
         :: SCC energy               -94.919671832086 Eh    ::
         :: -> dispersion             -0.042764207539 Eh    ::
         :: -> Gsolv                  -0.364523612880 Eh    ::
         :: repulsion energy           0.571893202339 Eh    ::

    * Orbital Energies and Occupations

         #    Occupation            Energy/Eh            Energy/eV
      -------------------------------------------------------------
         1        2.0000           -0.6570425             -17.8790
       ...           ...                  ...                  ...
        65        2.0000           -0.4156943             -11.3116
        66        2.0000           -0.4142850             -11.2733
        67        2.0000           -0.4134437             -11.2504
        68        2.0000           -0.4116613             -11.2019
        69        2.0000           -0.4112137             -11.1897
        70        2.0000           -0.4091219             -11.1328
        71        2.0000           -0.4086906             -11.1210
        72        2.0000           -0.4061605             -11.0522
        73        1.7133           -0.3231097              -8.7923
        74        1.2765           -0.3213301              -8.7438
        75        1.0077           -0.3176285              -8.6431
        76        1.0025           -0.3165624              -8.6141
        77        1.0000           -0.3107573              -8.4561 (HOMO)
        78                         -0.0505237              -1.3748 (LUMO)
        79                          0.0149247               0.4061
        80                          0.0260594               0.7091
        81                          0.0356178               0.9692
        82                          0.0839073               2.2832
        83                          0.1107353               3.0133
        84                          0.1175711               3.1993
        85                          0.1244987               3.3878
        86                          0.1406105               3.8262
        87                          0.1525675               4.1516
        88                          0.1709118               4.6507
       ...                                ...                  ...
       117                          1.0313256              28.0638
      -------------------------------------------------------------
                  HL-Gap            0.2602336 Eh            7.0813 eV

     #   Z          covCN         q      C6AA      α(0)
     1  26 Fe       0.614     1.143   405.466    58.327
     2   8 O        1.674    -0.626    25.787     6.856
     3   8 O        1.725    -0.628    25.823     6.861
     4   8 O        1.708    -0.627    25.801     6.858
     5   8 O        1.677    -0.626    25.769     6.853
     6   8 O        1.718    -0.607    25.312     6.793
     7   8 O        1.689    -0.626    25.770     6.854
     8   1 H        0.804     0.350     0.589     1.206
     9   1 H        0.806     0.343     0.605     1.221
    10   1 H        0.804     0.349     0.590     1.207
    11   1 H        0.804     0.349     0.590     1.206
    12   1 H        0.803     0.362     0.562     1.177
    13   1 H        0.806     0.352     0.583     1.199
    14   1 H        0.804     0.354     0.579     1.195
    15   1 H        0.805     0.350     0.587     1.204
    16   1 H        0.805     0.359     0.568     1.184
    17   1 H        0.803     0.366     0.553     1.168
    18   1 H        0.804     0.356     0.575     1.191
    19   1 H        0.805     0.348     0.593     1.210
    20   8 O        1.607    -0.683    27.271     7.048
    21   8 O        1.609    -0.674    27.021     7.016
    22   8 O        1.609    -0.679    27.154     7.033
    23   8 O        1.667    -0.616    25.549     6.824
    24   8 O        1.609    -0.693    27.528     7.081
    25   8 O        1.609    -0.682    27.233     7.043
    26   8 O        1.610    -0.674    27.026     7.016
    27   8 O        1.608    -0.678    27.140     7.031
    28   8 O        1.609    -0.681    27.202     7.039
    29   8 O        1.627    -0.632    25.962     6.877
    30   8 O        1.609    -0.677    27.102     7.026
    31   8 O        1.608    -0.690    27.446     7.071
    32   1 H        0.804     0.355     0.577     1.194
    33   1 H        0.806     0.338     0.618     1.234
    34   1 H        0.805     0.336     0.623     1.240
    35   1 H        0.802     0.370     0.545     1.159
    36   1 H        0.805     0.343     0.605     1.222
    37   1 H        0.803     0.355     0.578     1.194
    38   1 H        0.805     0.361     0.564     1.179
    39   1 H        0.805     0.353     0.582     1.198
    40   1 H        0.806     0.339     0.614     1.231
    41   1 H        0.803     0.365     0.555     1.170
    42   1 H        0.804     0.360     0.566     1.182
    43   1 H        0.805     0.356     0.574     1.190
    44   1 H        0.806     0.342     0.608     1.225
    45   1 H        0.802     0.366     0.553     1.168
    46   1 H        0.806     0.337     0.618     1.235
    47   1 H        0.803     0.356     0.574     1.191
    48   1 H        0.806     0.342     0.606     1.223
    49   1 H        0.803     0.366     0.553     1.168
    50   1 H        0.804     0.344     0.601     1.218
    51   1 H        0.804     0.350     0.589     1.205
    52   1 H        0.806     0.337     0.620     1.236
    53   1 H        0.804     0.355     0.577     1.193
    54   1 H        0.806     0.341     0.610     1.226
    55   1 H        0.803     0.354     0.578     1.195

Wiberg/Mayer (AO) data.
largest (>0.10) Wiberg bond orders for each atom

     #   Z sym  total        # sym  WBO       # sym  WBO       # sym  WBO
 ---------------------------------------------------------------------------
     1  26 Fe   1.393 --     3 O    0.191     7 O    0.187     6 O    0.186
                             4 O    0.183     5 O    0.159    23 O    0.158
                             2 O    0.153    29 O    0.112
     2   8 O    1.932 --    13 H    0.869    12 H    0.808     1 Fe   0.153
     3   8 O    1.960 --    16 H    0.830    17 H    0.800     1 Fe   0.191
     4   8 O    1.933 --    15 H    0.837    14 H    0.831     1 Fe   0.183
     5   8 O    1.912 --    19 H    0.870    18 H    0.829     1 Fe   0.159
     6   8 O    1.935 --     9 H    0.877     8 H    0.830     1 Fe   0.186
     7   8 O    1.924 --    10 H    0.836    11 H    0.831     1 Fe   0.187
     8   1 H    0.876 --     6 O    0.830
     9   1 H    0.881 --     6 O    0.877
    10   1 H    0.877 --     7 O    0.836
    11   1 H    0.877 --     7 O    0.831
    12   1 H    0.869 --     2 O    0.808
    13   1 H    0.875 --     2 O    0.869
    14   1 H    0.873 --     4 O    0.831
    15   1 H    0.876 --     4 O    0.837
    16   1 H    0.870 --     3 O    0.830
    17   1 H    0.865 --     3 O    0.800
    18   1 H    0.873 --     5 O    0.829
    19   1 H    0.878 --     5 O    0.870
    20   8 O    1.843 --    34 H    0.862    35 H    0.802
    21   8 O    1.829 --    54 H    0.877    55 H    0.826
    22   8 O    1.829 --    40 H    0.875    41 H    0.817
    23   8 O    1.952 --    43 H    0.864    42 H    0.816     1 Fe   0.158
    24   8 O    1.796 --    36 H    0.879    37 H    0.833
    25   8 O    1.805 --    33 H    0.879    32 H    0.834
    26   8 O    1.812 --    52 H    0.881    53 H    0.846
    27   8 O    1.840 --    50 H    0.842    51 H    0.839
    28   8 O    1.828 --    48 H    0.873    49 H    0.821
    29   8 O    1.899 --    39 H    0.854    38 H    0.845     1 Fe   0.112
    30   8 O    1.826 --    46 H    0.878    47 H    0.824
    31   8 O    1.818 --    44 H    0.873    45 H    0.810
    32   1 H    0.874 --    25 O    0.834
    33   1 H    0.886 --    25 O    0.879
    34   1 H    0.887 --    20 O    0.862
    35   1 H    0.863 --    20 O    0.802
    36   1 H    0.882 --    24 O    0.879
    37   1 H    0.874 --    24 O    0.833
    38   1 H    0.870 --    29 O    0.845
    39   1 H    0.875 --    29 O    0.854
    40   1 H    0.885 --    22 O    0.875
    41   1 H    0.867 --    22 O    0.817
    42   1 H    0.870 --    23 O    0.816
    43   1 H    0.873 --    23 O    0.864
    44   1 H    0.883 --    31 O    0.873
    45   1 H    0.866 --    31 O    0.810
    46   1 H    0.886 --    30 O    0.878
    47   1 H    0.873 --    30 O    0.824
    48   1 H    0.883 --    28 O    0.873
    49   1 H    0.866 --    28 O    0.821
    50   1 H    0.881 --    27 O    0.842
    51   1 H    0.878 --    27 O    0.839
    52   1 H    0.886 --    26 O    0.881
    53   1 H    0.874 --    26 O    0.846
    54   1 H    0.884 --    21 O    0.877
    55   1 H    0.874 --    21 O    0.826
 ---------------------------------------------------------------------------

molecular dipole:
                 x           y           z       tot (Debye)
 q only:        0.563      -0.564      -1.296
   full:        1.057      -0.721      -1.165       4.400

           -------------------------------------------------
          | TOTAL ENERGY              -94.345743213983 Eh   |
          | GRADIENT NORM               0.000051597817 Eh/α |
          | HOMO-LUMO GAP               7.081317569623 eV   |
           -------------------------------------------------

 * finished run on 2024/05/10 at 17:52:53.206
