   * xtb version 6.6.0 (conda-forge) compiled by 'runner@Mac-1676020848589.local' on 2023-02-10
          program call               : xtb Fe_18H2O.xyz --opt extreme --gfn2 --chrg 3 --uhf 6 --alpb water

   ID    Z sym.   atoms
    1   26 Fe     1
    2    8 O      2-7, 20-31
    3    1 H      8-19, 32-55

      * Solvation model:               ALPB
        Solvent                        water
        Solvent mass                       1.8000E+01 g/mol
          :  Hamiltonian                  GFN2-xTB          :
 * total energy  :   -93.9539636 Eh     change       -0.9953283E-10 Eh
 * total energy  :   -93.9608157 Eh     change       -0.6852128E-02 Eh
 * total energy  :   -93.9635581 Eh     change       -0.2742350E-02 Eh
 * total energy  :   -93.9643087 Eh     change       -0.7506695E-03 Eh
 * total energy  :   -93.9647898 Eh     change       -0.4810452E-03 Eh
 * total energy  :   -93.9652821 Eh     change       -0.4923343E-03 Eh
 * total energy  :   -93.9656459 Eh     change       -0.3637884E-03 Eh
 * total energy  :   -93.9659252 Eh     change       -0.2792721E-03 Eh
 * total energy  :   -93.9663020 Eh     change       -0.3768745E-03 Eh
 * total energy  :   -93.9667233 Eh     change       -0.4213032E-03 Eh
 * total energy  :   -93.9782810 Eh     change        0.6490453E-08 Eh
 * total energy  :   -93.9782811 Eh     change       -0.9927237E-07 Eh
 * total energy  :   -93.9782812 Eh     change       -0.1667153E-06 Eh
 * total energy  :   -93.9782814 Eh     change       -0.1175143E-06 Eh
 * total energy  :   -93.9782814 Eh     change       -0.6597844E-08 Eh
 * total energy  :   -93.9782815 Eh     change       -0.9593474E-07 Eh
 * total energy  :   -93.9782815 Eh     change        0.1345782E-08 Eh
 * total energy  :   -93.9782815 Eh     change       -0.6710253E-07 Eh
 * total energy  :   -93.9782816 Eh     change       -0.4224783E-07 Eh
   *** GEOMETRY OPTIMIZATION CONVERGED AFTER 103 ITERATIONS ***

 final structure:
================
55
 xtb: 6.6.0 (conda-forge)
Fe          -0.13497372542556       -0.14014085594287        0.10059743200119
O           -2.02095902423469       -0.94072169643810        0.88432147614259
O            1.07194379336682        1.30303164638588        1.16412213457764
O            1.66071688859090       -0.11301192919371       -1.20217737879318
O           -0.97158536775104       -0.04700509203252       -2.07683862932757
O           -1.45709405487968        1.70371655447146        0.09313653266731
O            0.82926058960872       -1.43382960380670        1.67272008915076
H           -2.42414785349299        1.59715116908122        0.00371116891578
H           -1.20004710896377        2.37021094447732       -0.56027298343589
H            1.01155272794294       -1.03596747131523        2.54509181937012
H            1.68762188384020       -1.82084027661346        1.40204545720008
H           -2.49793653845564       -0.46038016742115        1.58323550240222
H           -2.56444853805257       -1.68469243301291        0.58907010184907
H            2.41906456093190        0.49659967456664       -1.08734938807025
H            2.02399185370690       -0.93003553559402       -1.58062431333880
H            1.22547330659047        2.18922096645352        0.78501161239351
H            1.95964997814561        0.98713621584555        1.45816281571461
H           -1.95030287086133       -0.13847961484364       -2.10961015485005
H           -0.61679765864210       -0.67045730253141       -2.71421159403592
O           -2.91450196499731        0.96110435908943        2.56333741718560
O            3.20011235317653       -2.30028649649814        0.73701039196886
O           -3.62539276852952       -0.37553313695830       -1.95305651133390
O           -0.23729139375437       -2.45530926795278       -0.60827881780090
O           -4.16177901399021        1.33832894112721        0.12565773795625
O           -2.88991944977562       -2.80823564038042       -0.94170024714784
O            1.89134247246772       -0.24267530285289        3.85836785602250
O            3.50864400123603        0.32764856501319        1.59034568888222
O            1.61128331680850        3.42692174514197       -0.41276153533294
O           -0.28867479037760        2.66735275462875       -2.18937483255844
O            3.64869431984893        1.67717716555329       -0.82226745383287
O            2.20384666548881       -2.70618213392257       -1.77589335566728
H           -3.22850294677973       -2.01139060580653       -1.39579319595765
H           -3.44067327336426       -3.54915240311814       -1.19122473833920
H           -2.91909251642646        0.92263462077350        3.52042169483652
H           -2.18002570207127        1.52982845470648        2.29393678403011
H           -4.79455629385989        2.05687876262995        0.09443524796528
H           -4.03472950242026        1.10460235080748        1.06084892294155
H           -0.43642961950999        3.09111562977286       -3.03512615181528
H           -0.35305889592166        1.70374790307128       -2.32215562785833
H           -4.23801584912134       -0.15126046810636       -2.65467571394151
H           -3.86610609002286        0.16269934167600       -1.17357711926298
H           -1.15467600098554       -2.68249750030300       -0.86264900198048
H           -0.08411176947927       -2.91776695345769        0.22170914408717
H            2.35110779750809       -3.32571797285210       -2.48993510683387
H            1.27381071308374       -2.78998140957671       -1.47618596444302
H            4.27623241628234        1.96301359173103       -1.48574915820743
H            3.02066864267247        2.41317297600154       -0.66817246746875
H            1.55033506366649        4.37339796523448       -0.28429999782507
H            0.96591688973910        3.17395388650726       -1.10806417125445
H            3.84770040317414        0.84208159180548        0.84147686839852
H            3.48349322886885       -0.59475819200043        1.27635949077906
H            2.24824909283280       -0.56416086048969        4.68552129427848
H            2.63109474560199        0.09269464513881        3.32883103860464
H            3.70544619536737       -3.05011487076057        1.05026588798959
H            2.98364668163970       -2.45852722794318       -0.20339599759814

          :  Hamiltonian                  GFN2-xTB          :
         :: total energy             -93.978281571610 Eh    ::
         :: gradient norm              0.000042501008 Eh/a0 ::
         :: HOMO-LUMO gap              7.944762384757 eV    ::
         :: SCC energy               -94.543732102434 Eh    ::
         :: -> dispersion             -0.032173781060 Eh    ::
         :: -> Gsolv                  -0.704946415232 Eh    ::
         :: repulsion energy           0.563772959291 Eh    ::

    * Orbital Energies and Occupations

         #    Occupation            Energy/Eh            Energy/eV
      -------------------------------------------------------------
         1        2.0000           -0.6624020             -18.0249
       ...           ...                  ...                  ...
        65        2.0000           -0.4222020             -11.4887
        66        2.0000           -0.4221516             -11.4873
        67        2.0000           -0.4212359             -11.4624
        68        2.0000           -0.4206347             -11.4461
        69        2.0000           -0.4201380             -11.4325
        70        2.0000           -0.4193563             -11.4113
        71        2.0000           -0.4109498             -11.1825
        72        2.0000           -0.4086571             -11.1201
        73        1.0000           -0.3704628             -10.0808
        74        1.0000           -0.3669434              -9.9850
        75        1.0000           -0.3548986              -9.6573
        76        1.0000           -0.3443792              -9.3710
        77        1.0000           -0.3378173              -9.1925 (HOMO)
        78                         -0.0458527              -1.2477 (LUMO)
        79                          0.0078070               0.2124
        80                          0.0296136               0.8058
        81                          0.0529806               1.4417
        82                          0.0809441               2.2026
        83                          0.0940312               2.5587
        84                          0.0990792               2.6961
        85                          0.1316240               3.5817
        86                          0.1431418               3.8951
        87                          0.1673410               4.5536
        88                          0.1683154               4.5801
       ...                                ...                  ...
       117                          1.2776115              34.7656
      -------------------------------------------------------------
                  HL-Gap            0.2919646 Eh            7.9448 eV

     #   Z          covCN         q      C6AA      α(0)
     1  26 Fe       2.325     1.678     4.558     6.887
     2   8 O        2.037    -0.632    25.868     6.869
     3   8 O        2.080    -0.630    25.815     6.862
     4   8 O        2.000    -0.632    25.877     6.870
     5   8 O        1.839    -0.633    25.923     6.876
     6   8 O        1.928    -0.630    25.831     6.864
     7   8 O        1.950    -0.634    25.921     6.876
     8   1 H        0.803     0.383     0.516     1.129
     9   1 H        0.804     0.379     0.525     1.139
    10   1 H        0.803     0.380     0.522     1.135
    11   1 H        0.803     0.381     0.521     1.134
    12   1 H        0.804     0.385     0.514     1.126
    13   1 H        0.805     0.391     0.501     1.112
    14   1 H        0.803     0.387     0.510     1.122
    15   1 H        0.804     0.382     0.518     1.131
    16   1 H        0.803     0.389     0.505     1.116
    17   1 H        0.802     0.391     0.501     1.112
    18   1 H        0.802     0.385     0.512     1.124
    19   1 H        0.805     0.375     0.532     1.146
    20   8 O        1.610    -0.667    26.840     6.992
    21   8 O        1.609    -0.666    26.822     6.990
    22   8 O        1.609    -0.660    26.673     6.970
    23   8 O        1.741    -0.625    25.726     6.849
    24   8 O        1.610    -0.661    26.702     6.974
    25   8 O        1.609    -0.672    26.986     7.011
    26   8 O        1.610    -0.669    26.897     7.000
    27   8 O        1.608    -0.680    27.188     7.037
    28   8 O        1.608    -0.671    26.950     7.007
    29   8 O        1.609    -0.676    27.085     7.024
    30   8 O        1.609    -0.670    26.919     7.002
    31   8 O        1.608    -0.685    27.312     7.053
    32   1 H        0.803     0.361     0.563     1.179
    33   1 H        0.806     0.333     0.628     1.245
    34   1 H        0.806     0.348     0.592     1.209
    35   1 H        0.805     0.371     0.543     1.157
    36   1 H        0.806     0.344     0.602     1.218
    37   1 H        0.804     0.364     0.557     1.173
    38   1 H        0.806     0.343     0.603     1.220
    39   1 H        0.804     0.369     0.545     1.160
    40   1 H        0.806     0.344     0.602     1.218
    41   1 H        0.803     0.365     0.554     1.169
    42   1 H        0.803     0.381     0.522     1.135
    43   1 H        0.805     0.370     0.543     1.158
    44   1 H        0.806     0.339     0.614     1.231
    45   1 H        0.803     0.373     0.537     1.151
    46   1 H        0.806     0.336     0.621     1.238
    47   1 H        0.803     0.362     0.560     1.176
    48   1 H        0.806     0.339     0.615     1.232
    49   1 H        0.803     0.364     0.556     1.172
    50   1 H        0.804     0.350     0.587     1.204
    51   1 H        0.804     0.358     0.571     1.187
    52   1 H        0.806     0.332     0.633     1.249
    53   1 H        0.804     0.356     0.575     1.191
    54   1 H        0.806     0.339     0.616     1.232
    55   1 H        0.803     0.363     0.558     1.174

Wiberg/Mayer (AO) data.
largest (>0.10) Wiberg bond orders for each atom

     #   Z sym  total        # sym  WBO       # sym  WBO       # sym  WBO
 ---------------------------------------------------------------------------
     1  26 Fe   1.768 --     3 O    0.295     4 O    0.270     2 O    0.263
                             7 O    0.248     6 O    0.241     5 O    0.206
                            23 O    0.176
     2   8 O    1.924 --    13 H    0.810    12 H    0.795     1 Fe   0.263
     3   8 O    1.923 --    16 H    0.791    17 H    0.763     1 Fe   0.295
     4   8 O    1.924 --    15 H    0.805    14 H    0.784     1 Fe   0.270
     5   8 O    1.932 --    19 H    0.853    18 H    0.783     1 Fe   0.206
     6   8 O    1.923 --     9 H    0.821     8 H    0.794     1 Fe   0.241
     7   8 O    1.916 --    10 H    0.804    11 H    0.790     1 Fe   0.248
     8   1 H    0.850 --     6 O    0.794
     9   1 H    0.854 --     6 O    0.821
    10   1 H    0.853 --     7 O    0.804
    11   1 H    0.852 --     7 O    0.790
    12   1 H    0.848 --     2 O    0.795
    13   1 H    0.841 --     2 O    0.810
    14   1 H    0.847 --     4 O    0.784
    15   1 H    0.849 --     4 O    0.805
    16   1 H    0.845 --     3 O    0.791
    17   1 H    0.844 --     3 O    0.763
    18   1 H    0.850 --     5 O    0.783
    19   1 H    0.857 --     5 O    0.853
    20   8 O    1.840 --    34 H    0.871    35 H    0.854
    21   8 O    1.852 --    54 H    0.878    55 H    0.818
    22   8 O    1.871 --    40 H    0.873    41 H    0.822
    23   8 O    1.934 --    43 H    0.854    42 H    0.797     1 Fe   0.176
    24   8 O    1.853 --    36 H    0.874    37 H    0.834
    25   8 O    1.831 --    33 H    0.880    32 H    0.821
    26   8 O    1.810 --    52 H    0.884    53 H    0.851
    27   8 O    1.848 --    50 H    0.841    51 H    0.830
    28   8 O    1.851 --    48 H    0.876    49 H    0.811
    29   8 O    1.834 --    38 H    0.873    39 H    0.825
    30   8 O    1.844 --    46 H    0.879    47 H    0.818
    31   8 O    1.827 --    44 H    0.874    45 H    0.811
    32   1 H    0.870 --    25 O    0.821
    33   1 H    0.889 --    25 O    0.880
    34   1 H    0.879 --    20 O    0.871
    35   1 H    0.863 --    20 O    0.854
    36   1 H    0.881 --    24 O    0.874
    37   1 H    0.868 --    24 O    0.834
    38   1 H    0.882 --    29 O    0.873
    39   1 H    0.864 --    29 O    0.825
    40   1 H    0.881 --    22 O    0.873
    41   1 H    0.867 --    22 O    0.822
    42   1 H    0.854 --    23 O    0.797
    43   1 H    0.863 --    23 O    0.854
    44   1 H    0.885 --    31 O    0.874
    45   1 H    0.861 --    31 O    0.811
    46   1 H    0.887 --    30 O    0.879
    47   1 H    0.869 --    30 O    0.818
    48   1 H    0.885 --    28 O    0.876
    49   1 H    0.867 --    28 O    0.811
    50   1 H    0.877 --    27 O    0.841
    51   1 H    0.872 --    27 O    0.830
    52   1 H    0.890 --    26 O    0.884
    53   1 H    0.874 --    26 O    0.851
    54   1 H    0.885 --    21 O    0.878
    55   1 H    0.868 --    21 O    0.818
 ---------------------------------------------------------------------------

molecular dipole:
                 x           y           z       tot (Debye)
 q only:       -1.962      -0.444      -1.696
   full:       -2.193      -0.383      -2.225       8.000

           -------------------------------------------------
          | TOTAL ENERGY              -93.978281571610 Eh   |
          | GRADIENT NORM               0.000042501008 Eh/α |
          | HOMO-LUMO GAP               7.944762384757 eV   |
           -------------------------------------------------

 * finished run on 2024/05/10 at 17:52:44.020
