   * xtb version 6.6.0 (conda-forge) compiled by 'runner@Mac-1676020848589.local' on 2023-02-10
          program call               : xtb Fe_18H2O.xyz --opt extreme --gfn2 --chrg 0 --uhf 5 --alpb water

   ID    Z sym.   atoms
    1   26 Fe     1
    2    8 O      2-7, 20-31
    3    1 H      8-19, 32-55

      * Solvation model:               ALPB
        Solvent                        water
        Solvent mass                       1.8000E+01 g/mol
          :  Hamiltonian                  GFN2-xTB          :
 * total energy  :   -94.4476163 Eh     change       -0.2934826E-09 Eh
 * total energy  :   -94.5098338 Eh     change       -0.6221754E-01 Eh
 * total energy  :   -94.5587341 Eh     change       -0.4890022E-01 Eh
 * total energy  :   -94.5774810 Eh     change       -0.1874692E-01 Eh
 * total energy  :   -94.5922905 Eh     change       -0.1480954E-01 Eh
 * total energy  :   -94.6176883 Eh     change       -0.2539779E-01 Eh
 * total energy  :   -94.6257397 Eh     change       -0.8051404E-02 Eh
 * total energy  :   -94.6464064 Eh     change       -0.2066668E-01 Eh
 * total energy  :   -94.6932087 Eh     change       -0.4680232E-01 Eh
 * total energy  :   -94.7197396 Eh     change       -0.2653092E-01 Eh
 * total energy  :   -94.9840831 Eh     change       -0.4495652E-06 Eh
 * total energy  :   -94.9840833 Eh     change       -0.2113784E-06 Eh
 * total energy  :   -94.9840833 Eh     change        0.4085365E-07 Eh
 * total energy  :   -94.9840834 Eh     change       -0.1615242E-06 Eh
 * total energy  :   -94.9840835 Eh     change       -0.6778728E-07 Eh
 * total energy  :   -94.9840835 Eh     change       -0.6292771E-07 Eh
 * total energy  :   -94.9840836 Eh     change       -0.5366459E-08 Eh
 * total energy  :   -94.9840836 Eh     change       -0.5057318E-07 Eh
 * total energy  :   -94.9840836 Eh     change       -0.2697460E-07 Eh
   *** GEOMETRY OPTIMIZATION CONVERGED AFTER 287 ITERATIONS ***

 final structure:
================
55
 xtb: 6.6.0 (conda-forge)
Fe          -0.53365424077881        0.36234615661917        0.37386261120822
O           -2.83180840463163       -0.68760951247109        0.85756505256272
O            1.34404529886697        1.52537275647878        1.43103228976744
O            1.40348463985554        0.23226787337742       -1.13770331227405
O           -1.90169496272626        0.82163048141219       -1.66991109849971
O           -0.67923936985874        2.83642218412607       -0.02203762413212
O            0.39615449368793       -1.29438497000009        1.93098724462481
H           -1.63073705636499        2.94803324012562        0.07638692015093
H           -0.48799018813646        2.83115165643035       -0.97411889629826
H            0.76862940796896       -0.90146515054704        2.74088049515776
H            1.16116611222872       -1.70152523111556        1.49003189230175
H           -2.88890892746668       -1.14880829881286        1.69528018338126
H           -3.08031201310002       -1.33844008166153        0.16828283527579
H            2.28428005373841        0.52481561922834       -0.83522427617140
H            1.52547737830365       -0.63926848845957       -1.54282637274255
H            1.63554022706487        2.22033774953461        0.82129816524027
H            2.12505131417892        0.97464042654309        1.62002819065197
H           -2.67870474066945        1.24626342803814       -1.29586100011940
H           -2.23504263025547        0.06471447462580       -2.17917698223062
O           -1.10118110469778        1.32478201336389        2.66140400115277
O            2.59064093740906       -2.41431461982574        0.63296646000048
O           -3.09923893172083       -1.21892620023655       -3.10298874225751
O           -0.70807481555185       -2.03968175556903       -0.51361725555719
O           -3.20413148211256        2.01398302475563        0.82774669793666
O           -3.21041088813377       -2.55561636772918       -1.00937752704244
O            1.77881118309334       -0.24518087693940        4.05148161649539
O            3.54247132150115       -0.08545406882884        1.81410491125856
O            2.09579361734620        3.46993821036578       -0.49748712356047
O            0.37280830209819        2.29620203408577       -2.51954278805301
O            3.86540882481738        1.34906620842224       -0.53548695805677
O            1.49411652737808       -2.40307013666947       -1.91899520269460
H           -3.15847260186321       -1.81215477108075       -2.22224016442466
H           -3.59756175567862       -3.40348291959284       -1.20994364320870
H           -0.90532334793739        0.68877788837734        3.35263627588157
H           -0.33120049261289        1.90684728048628        2.62059190012582
H           -3.36529095010891        1.05990159256418        0.77205569764989
H           -2.75417617921560        2.11091012226889        1.67695831997478
H           -0.46827386470733        1.98109773254831       -2.86333125619766
H            0.78136758532077        1.48990201626874       -2.12994736050428
H           -3.95593318678497       -1.30453606719814       -3.51906932321443
H           -6.64382856572846       -5.08548979651730       -4.22404272123696
H           -1.63272811752919       -2.27399159778664       -0.79421533982916
H           -0.58566409325520       -2.45492758531446        0.34596896255900
H            1.36446356085769       -2.76688288127544       -2.79521828510173
H            0.60340156087654       -2.35258588240400       -1.49083885760359
H            4.48035024442049        1.40957074196024       -1.26845277499425
H            3.42385219505308        2.21344220625893       -0.46327715383863
H            1.55576066289995        4.13562119488284       -0.06299318355181
H            1.59295829865687        3.19817421674533       -1.28069581204123
H            3.95067662520230        0.41825334462299        1.09289320199234
H            3.26620502060082       -0.92650163465886        1.40735436736398
H            2.11658574672498       -0.77138485074644        4.77820043429875
H            2.53004518768214       -0.05374221132056        3.46683919106184
H            2.89281228131758       -3.30467721418408        0.82020561381953
H            2.33229430167948       -2.39405270356467       -0.30409249703418

          :  Hamiltonian                  GFN2-xTB          :
         :: total energy             -94.984083631349 Eh    ::
         :: gradient norm              0.000037848471 Eh/a0 ::
         :: HOMO-LUMO gap              7.160299939379 eV    ::
         :: SCC energy               -95.532317057425 Eh    ::
         :: -> dispersion             -0.044874884321 Eh    ::
         :: -> Gsolv                  -0.441795535263 Eh    ::
         :: repulsion energy           0.546142062981 Eh    ::

    * Orbital Energies and Occupations

         #    Occupation            Energy/Eh            Energy/eV
      -------------------------------------------------------------
         1        2.0000           -0.6569361             -17.8761
       ...           ...                  ...                  ...
        66        2.0000           -0.4093317             -11.1385
        67        2.0000           -0.4079116             -11.0998
        68        2.0000           -0.4039643             -10.9924
        69        2.0000           -0.4017069             -10.9310
        70        2.0000           -0.4007562             -10.9051
        71        2.0000           -0.3984811             -10.8432
        72        2.0000           -0.3588090              -9.7637
        73        2.0000           -0.3547539              -9.6533
        74        1.8290           -0.3193137              -8.6890
        75        1.1569           -0.3162170              -8.6047
        76        1.0107           -0.3135171              -8.5312
        77        1.0033           -0.3124006              -8.5009
        78        1.0000           -0.3076955              -8.3728 (HOMO)
        79                         -0.0445593              -1.2125 (LUMO)
        80                          0.0203492               0.5537
        81                          0.0310001               0.8436
        82                          0.0513252               1.3966
        83                          0.0863717               2.3503
        84                          0.1125478               3.0626
        85                          0.1222596               3.3269
        86                          0.1403423               3.8189
        87                          0.1407168               3.8291
        88                          0.1673280               4.5532
        89                          0.1709108               4.6507
       ...                                ...                  ...
       117                          1.0791906              29.3663
      -------------------------------------------------------------
                  HL-Gap            0.2631362 Eh            7.1603 eV

     #   Z          covCN         q      C6AA      α(0)
     1  26 Fe       0.583     1.094   425.292    59.706
     2   8 O        1.646    -0.615    25.535     6.821
     3   8 O        1.719    -0.622    25.676     6.842
     4   8 O        1.709    -0.621    25.641     6.837
     5   8 O        1.682    -0.591    24.931     6.741
     6   8 O        1.677    -0.615    25.519     6.820
     7   8 O        1.712    -0.634    25.973     6.881
     8   1 H        0.805     0.337     0.620     1.236
     9   1 H        0.804     0.347     0.595     1.211
    10   1 H        0.804     0.353     0.580     1.197
    11   1 H        0.804     0.351     0.585     1.202
    12   1 H        0.806     0.344     0.603     1.219
    13   1 H        0.803     0.338     0.617     1.234
    14   1 H        0.803     0.367     0.551     1.166
    15   1 H        0.804     0.349     0.589     1.206
    16   1 H        0.804     0.353     0.581     1.197
    17   1 H        0.804     0.358     0.570     1.186
    18   1 H        0.805     0.338     0.617     1.234
    19   1 H        0.804     0.331     0.635     1.252
    20   8 O        1.659    -0.618    25.584     6.828
    21   8 O        1.609    -0.664    26.779     6.984
    22   8 O        1.579    -0.740    28.829     7.245
    23   8 O        1.646    -0.613    25.467     6.812
    24   8 O        1.609    -0.679    27.147     7.032
    25   8 O        0.884    -0.914    35.252     7.961
    26   8 O        1.610    -0.677    27.095     7.025
    27   8 O        1.608    -0.684    27.299     7.052
    28   8 O        1.610    -0.670    26.914     7.002
    29   8 O        1.607    -0.692    27.495     7.077
    30   8 O        1.609    -0.673    26.993     7.012
    31   8 O        1.607    -0.692    27.489     7.076
    32   1 H        0.850     0.311     0.682     1.294
    33   1 H        0.806     0.191     1.168     1.697
    34   1 H        0.805     0.346     0.596     1.213
    35   1 H        0.805     0.367     0.549     1.164
    36   1 H        0.804     0.338     0.618     1.235
    37   1 H        0.805     0.349     0.590     1.207
    38   1 H        0.805     0.329     0.640     1.257
    39   1 H        0.802     0.364     0.557     1.173
    40   1 H        0.806     0.288     0.758     1.367
    41   1 H        0.000    -1.000  3074.319   101.384
    42   1 H        0.802     0.334     0.627     1.244
    43   1 H        0.805     0.349     0.591     1.207
    44   1 H        0.806     0.336     0.621     1.238
    45   1 H        0.802     0.356     0.575     1.191
    46   1 H        0.805     0.347     0.595     1.212
    47   1 H        0.804     0.357     0.573     1.189
    48   1 H        0.805     0.350     0.588     1.204
    49   1 H        0.804     0.355     0.577     1.193
    50   1 H        0.804     0.346     0.598     1.214
    51   1 H        0.804     0.348     0.593     1.210
    52   1 H        0.805     0.343     0.604     1.221
    53   1 H        0.804     0.351     0.585     1.202
    54   1 H        0.805     0.347     0.595     1.212
    55   1 H        0.804     0.351     0.587     1.203

Wiberg/Mayer (AO) data.
largest (>0.10) Wiberg bond orders for each atom

     #   Z sym  total        # sym  WBO       # sym  WBO       # sym  WBO
 ---------------------------------------------------------------------------
     1  26 Fe   1.459 --     3 O    0.215     7 O    0.196     4 O    0.188
                             6 O    0.171     5 O    0.163    20 O    0.153
                            23 O    0.146     2 O    0.137
     2   8 O    1.927 --    12 H    0.877    13 H    0.824     1 Fe   0.137
     3   8 O    1.942 --    16 H    0.830    17 H    0.811     1 Fe   0.215
     4   8 O    1.974 --    15 H    0.830    14 H    0.813     1 Fe   0.188
     5   8 O    1.943 --    18 H    0.873    19 H    0.849     1 Fe   0.163
     6   8 O    1.919 --     8 H    0.858     9 H    0.831     1 Fe   0.171
     7   8 O    1.920 --    11 H    0.830    10 H    0.822     1 Fe   0.196
     8   1 H    0.886 --     6 O    0.858
     9   1 H    0.879 --     6 O    0.831
    10   1 H    0.874 --     7 O    0.822
    11   1 H    0.876 --     7 O    0.830
    12   1 H    0.881 --     2 O    0.877
    13   1 H    0.885 --     2 O    0.824
    14   1 H    0.864 --     4 O    0.813
    15   1 H    0.877 --     4 O    0.830
    16   1 H    0.874 --     3 O    0.830
    17   1 H    0.871 --     3 O    0.811
    18   1 H    0.885 --     5 O    0.873
    19   1 H    0.890 --     5 O    0.849
    20   8 O    1.914 --    34 H    0.874    35 H    0.847     1 Fe   0.153
    21   8 O    1.842 --    54 H    0.873    55 H    0.839
    22   8 O    1.736 --    40 H    0.910    32 H    0.682
    23   8 O    1.963 --    43 H    0.865    42 H    0.789     1 Fe   0.146
    24   8 O    1.810 --    37 H    0.862    36 H    0.846
    25   8 O    1.460 --    33 H    0.946    32 H    0.221
    26   8 O    1.811 --    52 H    0.878    53 H    0.851
    27   8 O    1.829 --    50 H    0.846    51 H    0.839
    28   8 O    1.831 --    48 H    0.867    49 H    0.850
    29   8 O    1.811 --    38 H    0.875    39 H    0.804
    30   8 O    1.834 --    46 H    0.873    47 H    0.837
    31   8 O    1.812 --    44 H    0.876    45 H    0.800
    32   1 H    0.903 --    22 O    0.682    25 O    0.221
    33   1 H    0.964 --    25 O    0.946
    34   1 H    0.880 --    20 O    0.874
    35   1 H    0.865 --    20 O    0.847
    36   1 H    0.886 --    24 O    0.846
    37   1 H    0.878 --    24 O    0.862
    38   1 H    0.892 --    29 O    0.875
    39   1 H    0.868 --    29 O    0.804
    40   1 H    0.917 --    22 O    0.910
    41   1 H    0.000
    42   1 H    0.888 --    23 O    0.789
    43   1 H    0.878 --    23 O    0.865
    44   1 H    0.887 --    31 O    0.876
    45   1 H    0.873 --    31 O    0.800
    46   1 H    0.879 --    30 O    0.873
    47   1 H    0.873 --    30 O    0.837
    48   1 H    0.877 --    28 O    0.867
    49   1 H    0.874 --    28 O    0.850
    50   1 H    0.880 --    27 O    0.846
    51   1 H    0.879 --    27 O    0.839
    52   1 H    0.882 --    26 O    0.878
    53   1 H    0.877 --    26 O    0.851
    54   1 H    0.880 --    21 O    0.873
    55   1 H    0.877 --    21 O    0.839
 ---------------------------------------------------------------------------

molecular dipole:
                 x           y           z       tot (Debye)
 q only:       16.608      10.964      10.571
   full:       16.097       9.523       9.946      53.841

           -------------------------------------------------
          | TOTAL ENERGY              -94.984083631349 Eh   |
          | GRADIENT NORM               0.000037848471 Eh/α |
          | HOMO-LUMO GAP               7.160299939379 eV   |
           -------------------------------------------------

 * finished run on 2024/05/10 at 17:53:04.397
