 Gaussian 16, Revision C.02,

 ----------------------------------------------------------------------
 #p PBEPBE empiricaldispersion=gd3 6-31+G(2df,p) opt=(cartesian,calcall
 ,maxcycles=500) freq scf=(maxcycles=500,xqc,maxconventional=50)
 ----------------------------------------------------------------------

 -----
 Title
 -----
 Symbolic Z-matrix:
 Charge =  3 Multiplicity = 4

 SCF Done:  E(UPBE-PBE) =  -1501.12361972     A.U. after   15 cycles
 SCF Done:  E(UPBE-PBE) =  -1501.14885384     A.U. after   11 cycles
 SCF Done:  E(UPBE-PBE) =  -1501.19066112     A.U. after   14 cycles
 SCF Done:  E(UPBE-PBE) =  -1501.22351277     A.U. after   14 cycles
 SCF Done:  E(UPBE-PBE) =  -1501.26183253     A.U. after   14 cycles
 SCF Done:  E(UPBE-PBE) =  -1501.29536303     A.U. after   14 cycles
 SCF Done:  E(UPBE-PBE) =  -1501.30032264     A.U. after   14 cycles
 SCF Done:  E(UPBE-PBE) =  -1501.30805506     A.U. after   12 cycles
 SCF Done:  E(UPBE-PBE) =  -1501.30905781     A.U. after   13 cycles
 SCF Done:  E(UPBE-PBE) =  -1501.30966867     A.U. after   13 cycles
 SCF Done:  E(UPBE-PBE) =  -1501.32109756     A.U. after   12 cycles
 SCF Done:  E(UPBE-PBE) =  -1501.32091790     A.U. after   12 cycles
 SCF Done:  E(UPBE-PBE) =  -1501.32171917     A.U. after    9 cycles
 SCF Done:  E(UPBE-PBE) =  -1501.32177534     A.U. after   11 cycles
 SCF Done:  E(UPBE-PBE) =  -1501.32178275     A.U. after    9 cycles
 SCF Done:  E(UPBE-PBE) =  -1501.32179315     A.U. after    7 cycles
 SCF Done:  E(UPBE-PBE) =  -1501.32178825     A.U. after    7 cycles
 SCF Done:  E(UPBE-PBE) =  -1501.32179351     A.U. after    7 cycles
 Optimization completed.
    -- Stationary point found.
 Normal termination of Gaussian 16 at Thu May 30 10:25:09 2024.

 ----------------------------------------------------------------------
 #P Geom=AllCheck Guess=TCheck SCRF=Check GenChk UPBEPBE/6-31+G(2df,p)
 Freq
 ----------------------------------------------------------------------

 Structure from the checkpoint file:  "Cr_3_PBE.chk"
 -----
 Title
 -----
 Charge =  3 Multiplicity = 4

 SCF Done:  E(UPBE-PBE) =  -1501.32179351     A.U. after    1 cycles

  Exact polarizability:      63.151      -0.001      63.144      -0.001       0.000      63.140
 Approx polarizability:      97.197       0.000      97.192      -0.000      -0.001      97.186

                      1                      2                      3
                      A                      A                      A
 Frequencies --    137.3800               138.2553               139.0611
 Red. masses --      6.9084                 6.9521                 6.9492
 Frc consts  --      0.0768                 0.0783                 0.0792
 IR Inten    --     17.9175                17.8776                17.6983

                      4                      5                      6
                      A                      A                      A
 Frequencies --    149.7117               150.6329               151.1782
 Red. masses --      5.2671                 5.2760                 5.2807
 Frc consts  --      0.0696                 0.0705                 0.0711
 IR Inten    --      0.0002                 0.0001                 0.0003

                      7                      8                      9
                      A                      A                      A
 Frequencies --    198.6787               199.0908               199.4472
 Red. masses --      4.3236                 4.3251                 4.3364
 Frc consts  --      0.1006                 0.1010                 0.1016
 IR Inten    --      5.1746                 4.8992                 4.9708

                     10                     11                     12
                      A                      A                      A
 Frequencies --    258.8538               259.4968               309.4095
 Red. masses --      1.0078                 1.0078                 1.0745
 Frc consts  --      0.0398                 0.0400                 0.0606
 IR Inten    --      0.0011                 0.0014                 0.0005

                     13                     14                     15
                      A                      A                      A
 Frequencies --    309.8628               310.2715               384.5463
 Red. masses --      1.0753                 1.0754                 5.7739
 Frc consts  --      0.0608                 0.0610                 0.5031
 IR Inten    --      0.0005                 0.0012                 0.0001

                     16                     17                     18
                      A                      A                      A
 Frequencies --    384.6205               389.4582               389.9111
 Red. masses --      5.7748                 1.0859                 1.0859
 Frc consts  --      0.5033                 0.0970                 0.0973
 IR Inten    --      0.0000               418.3629               417.8723

                     19                     20                     21
                      A                      A                      A
 Frequencies --    390.1603               400.5551               400.8427
 Red. masses --      1.0858                 1.0519                 1.0520
 Frc consts  --      0.0974                 0.0994                 0.0996
 IR Inten    --    418.4441                 0.0136                 0.0026

                     22                     23                     24
                      A                      A                      A
 Frequencies --    401.2981               436.2613               456.3471
 Red. masses --      1.0522                 6.0292                 5.1243
 Frc consts  --      0.0998                 0.6761                 0.6287
 IR Inten    --      0.0049                 0.0000                48.6058

                     25                     26                     27
                      A                      A                      A
 Frequencies --    456.4334               456.7623               478.2609
 Red. masses --      5.1065                 5.0986                 1.0079
 Frc consts  --      0.6268                 0.6267                 0.1358
 IR Inten    --     49.6424                49.9609                 0.0064

                     28                     29                     30
                      A                      A                      A
 Frequencies --    649.8407               650.0176               650.1492
 Red. masses --      1.1527                 1.1527                 1.1526
 Frc consts  --      0.2868                 0.2870                 0.2870
 IR Inten    --      0.0001                 0.0003                 0.0005

                     31                     32                     33
                      A                      A                      A
 Frequencies --    689.4577               689.6204               689.7107
 Red. masses --      1.3034                 1.3032                 1.3030
 Frc consts  --      0.3651                 0.3652                 0.3652
 IR Inten    --    157.8052               158.3102               158.5539

                     34                     35                     36
                      A                      A                      A
 Frequencies --   1599.3806              1599.4394              1599.5315
 Red. masses --      1.0975                 1.0975                 1.0975
 Frc consts  --      1.6541                 1.6542                 1.6545
 IR Inten    --    180.8560               180.7456               180.6907

                     37                     38                     39
                      A                      A                      A
 Frequencies --   1604.5616              1604.6499              1620.2875
 Red. masses --      1.0925                 1.0924                 1.0821
 Frc consts  --      1.6572                 1.6573                 1.6738
 IR Inten    --      0.0000                 0.0000                 0.0000

                     40                     41                     42
                      A                      A                      A
 Frequencies --   3556.2110              3556.2671              3556.3134
 Red. masses --      1.0432                 1.0432                 1.0432
 Frc consts  --      7.7730                 7.7733                 7.7735
 IR Inten    --    662.7002               663.7237               663.5956

                     43                     44                     45
                      A                      A                      A
 Frequencies --   3556.5719              3556.6322              3578.8229
 Red. masses --      1.0433                 1.0433                 1.0449
 Frc consts  --      7.7757                 7.7760                 7.8851
 IR Inten    --      0.7912                 0.2187                 0.0001

                     46                     47                     48
                      A                      A                      A
 Frequencies --   3639.2628              3639.3274              3639.3628
 Red. masses --      1.0863                 1.0863                 1.0863
 Frc consts  --      8.4768                 8.4771                 8.4772
 IR Inten    --      0.1404                 0.0739                 0.0172

                     49                     50                     51
                      A                      A                      A
 Frequencies --   3640.1001              3640.1643              3640.1990
 Red. masses --      1.0865                 1.0865                 1.0865
 Frc consts  --      8.4820                 8.4823                 8.4825
 IR Inten    --    548.9197               549.1112               549.0410

 - Thermochemistry -
 -------------------
 Temperature   298.150 Kelvin.  Pressure   1.00000 Atm.
 Atom     1 has atomic number 24 and mass  51.94051

 Molecular mass:   160.00390 amu.
 Principal axes and moments of inertia in atomic units:
                           1         2         3
     Eigenvalues --  1131.687251131.928621132.13124
           X            0.99993  -0.01082   0.00528
           Y            0.01097   0.99950  -0.02969
           Z           -0.00495   0.02975   0.99955
 This molecule is an asymmetric top.
 Rotational symmetry number  1.
 Warning -- assumption of classical behavior for rotation
           may cause significant error
 Rotational temperatures (Kelvin)      0.07654     0.07652     0.07651
 Rotational constants (GHZ):           1.59473     1.59439     1.59411
 Zero-point vibrational energy     389878.9 (Joules/Mol)
                                   93.18330 (Kcal/Mol)
 Warning -- explicit consideration of  27 degrees of freedom as
           vibrations may cause significant error
 Vibrational temperatures:    197.66   198.92   200.08   215.40   216.73
          (Kelvin)            217.51   285.85   286.45   286.96   372.43
                              373.36   445.17   445.82   446.41   553.28
                              553.38   560.34   561.00   561.35   576.31
                              576.72   577.38   627.68   656.58   656.71
                              657.18   688.11   934.98   935.23   935.42
                              991.98   992.21   992.34  2301.15  2301.24
                             2301.37  2308.61  2308.73  2331.23  5116.59
                             5116.68  5116.74  5117.11  5117.20  5149.13
                             5236.09  5236.18  5236.23  5237.29  5237.38
                             5237.43

 Zero-point correction=                           0.148497 (Hartree/Particle)
 Thermal correction to Energy=                    0.163704
 Thermal correction to Enthalpy=                  0.164649
 Thermal correction to Gibbs Free Energy=         0.109112
 Sum of electronic and zero-point Energies=          -1501.173296
 Sum of electronic and thermal Energies=             -1501.158089
 Sum of electronic and thermal Enthalpies=           -1501.157145
 Sum of electronic and thermal Free Energies=        -1501.212682

                     E (Thermal)             CV                S
                      KCal/Mol        Cal/Mol-Kelvin    Cal/Mol-Kelvin
 Total                  102.726             55.653            116.887
 Electronic               0.000              0.000              2.755
 Translational            0.889              2.981             41.119
 Rotational               0.889              2.981             28.763
 Vibrational            100.949             49.692             44.251
 Vibration     1          0.614              1.916              2.840
 Vibration     2          0.614              1.915              2.828
 Vibration     3          0.615              1.914              2.817
 Vibration     4          0.618              1.903              2.676
 Vibration     5          0.618              1.902              2.664
 Vibration     6          0.619              1.901              2.657
 Vibration     7          0.637              1.842              2.145
 Vibration     8          0.637              1.841              2.141
 Vibration     9          0.638              1.841              2.138
 Vibration    10          0.668              1.748              1.669
 Vibration    11          0.668              1.747              1.665
 Vibration    12          0.699              1.656              1.365
 Vibration    13          0.699              1.655              1.363
 Vibration    14          0.699              1.654              1.361
 Vibration    15          0.753              1.503              1.021
 Vibration    16          0.754              1.503              1.021
 Vibration    17          0.757              1.493              1.002
 Vibration    18          0.758              1.492              1.000
 Vibration    19          0.758              1.491              1.000
 Vibration    20          0.766              1.469              0.961
 Vibration    21          0.767              1.468              0.960
 Vibration    22          0.767              1.467              0.958
 Vibration    23          0.797              1.391              0.838
 Vibration    24          0.815              1.347              0.777
 Vibration    25          0.815              1.347              0.777
 Vibration    26          0.815              1.346              0.776
 Vibration    27          0.835              1.298              0.715

 Normal termination of Gaussian 16 at Thu May 30 10:26:42 2024.
 Gaussian 16:  ES64L-G16RevC.02  7-Dec-2021

 ----------------------------------------------------------------------
 #p PBEPBE empiricaldispersion=gd3 scf=(maxcycles=500,xqc,maxconvention
 al=50) scrf=(cpcm,solvent=water) geom=allcheck guess=read chkbasis
 ----------------------------------------------------------------------

 Structure from the checkpoint file:  "Cr_3_PBE.chk_solvated"
 -----
 Title
 -----
 Charge =  3 Multiplicity = 4

                         Standard orientation:
 ---------------------------------------------------------------------
 Center     Atomic      Atomic             Coordinates (Angstroms)
 Number     Number       Type             X           Y           Z
 ---------------------------------------------------------------------
      1         24           0       -0.000010    0.000001   -0.000005
      2          8           0        0.736106   -1.865182    0.107233
      3          1           0        1.511932   -2.208967   -0.389172
      4          8           0       -1.210563   -0.563934   -1.499465
      5          1           0       -1.849504    0.013454   -1.973694
      6          8           0       -1.423541   -0.484946    1.330667
      7          1           0       -1.353149   -0.401510    2.307705
      8          8           0       -0.736152    1.865162   -0.107359
      9          1           0       -0.384589    2.593214   -0.666712
     10          8           0        1.210557    0.563872    1.499481
     11          1           0        1.850027   -0.013381    1.973162
     12          8           0        1.423618    0.485026   -1.330548
     13          1           0        1.354081    0.399905   -2.307504
     14          1           0        2.311724    0.849360   -1.118314
     15          1           0       -1.267240   -1.465317   -1.887821
     16          1           0        0.383850   -2.593608    0.665657
     17          1           0        1.266661    1.465024    1.888457
     18          1           0       -2.312405   -0.847463    1.118502
     19          1           0       -1.511348    2.209288    0.389796
 ---------------------------------------------------------------------

 SCF Done:  E(UPBE-PBE) =  -1501.96237502     A.U. after   10 cycles

 The electronic state is 4-A.
 Alpha  occ. eigenvalues -- -214.65171 -24.47827 -20.84303 -20.84303 -20.84303
 Alpha  occ. eigenvalues --  -18.89478 -18.89478 -18.89477 -18.89477 -18.89474
 Alpha  occ. eigenvalues --  -18.89474  -2.93830  -1.92393  -1.92393  -1.92393
 Alpha  occ. eigenvalues --   -1.04172  -1.03115  -1.03114  -1.03111  -1.03016
 Alpha  occ. eigenvalues --   -1.03014  -0.58499  -0.58498  -0.58496  -0.58236
 Alpha  occ. eigenvalues --   -0.58235  -0.58233  -0.53903  -0.51580  -0.51578
 Alpha  occ. eigenvalues --   -0.48509  -0.48506  -0.48504  -0.39782  -0.39776
 Alpha  occ. eigenvalues --   -0.39774  -0.37707  -0.37705  -0.37702  -0.30993
 Alpha  occ. eigenvalues --   -0.30991  -0.30990
 Alpha virt. eigenvalues --   -0.21899  -0.21897  -0.08185  -0.03916  -0.03915
 Alpha virt. eigenvalues --   -0.03912   0.01026   0.01029   0.02802   0.04522
 Alpha virt. eigenvalues --    0.04523   0.04524   0.04917   0.04920   0.04922

  Beta  occ. eigenvalues -- -214.65151 -24.43806 -20.81244 -20.81244 -20.81243
  Beta  occ. eigenvalues --  -18.89444 -18.89444 -18.89443 -18.89443 -18.89440
  Beta  occ. eigenvalues --  -18.89440  -2.82938  -1.81708  -1.81707  -1.81707
  Beta  occ. eigenvalues --   -1.04026  -1.02984  -1.02983  -1.02980  -1.02899
  Beta  occ. eigenvalues --   -1.02896  -0.58334  -0.58333  -0.58331  -0.58170
  Beta  occ. eigenvalues --   -0.58170  -0.58168  -0.53403  -0.50810  -0.50807
  Beta  occ. eigenvalues --   -0.48430  -0.48427  -0.48425  -0.38136  -0.38131
  Beta  occ. eigenvalues --   -0.38128  -0.37373  -0.37372  -0.37368
  Beta virt. eigenvalues --   -0.20174  -0.20172  -0.20172  -0.17024  -0.17022
  Beta virt. eigenvalues --   -0.07928  -0.03787  -0.03786  -0.03783   0.01202
  Beta virt. eigenvalues --    0.01205   0.02924   0.04663   0.04664   0.04665

 Mulliken charges and spin densities:
               1          2
     1  Cr   1.399044   3.000596
     2  O   -0.620596  -0.001521
     3  H    0.443813   0.000706
     4  O   -0.620703  -0.001497
     5  H    0.443740   0.000708
     6  O   -0.620728  -0.001518
     7  H    0.443796   0.000703
     8  O   -0.620589  -0.001519
     9  H    0.443663   0.000706
    10  O   -0.620722  -0.001503
    11  H    0.443741   0.000708
    12  O   -0.620731  -0.001519
    13  H    0.443800   0.000704
    14  H    0.443758   0.000709
    15  H    0.443736   0.000707
    16  H    0.443664   0.000706
    17  H    0.443739   0.000708
    18  H    0.443761   0.000709
    19  H    0.443814   0.000706
 Sum of Mulliken charges =   3.00000   3.00000

 Dipole moment (field-independent basis, Debye):
    X=             -0.0001    Y=              0.0000    Z=              0.0000  Tot=              0.0001
 Quadrupole moment (field-independent basis, Debye-Ang):
   XX=             -7.7069   YY=             -7.7106   ZZ=             -7.7187
   XY=             -0.0014   XZ=             -0.0015   YZ=              0.0024

 Normal termination of Gaussian 16 at Thu May 30 10:27:22 2024.
