 Gaussian 16, Revision C.02,

 ----------------------------------------------------------------------
 #p PBEPBE empiricaldispersion=gd3 6-31+G(2df,p) opt=(cartesian,calcall
 ,maxcycles=500) freq scf=(maxcycles=500,xqc,maxconventional=50)
 ----------------------------------------------------------------------

 -----
 Title
 -----
 Symbolic Z-matrix:
 Charge =  2 Multiplicity = 6

 SCF Done:  E(UPBE-PBE) =  -1608.05391817     A.U. after   51 cycles
 SCF Done:  E(UPBE-PBE) =  -1608.07865277     a.u. after   11 cycles
 SCF Done:  E(UPBE-PBE) =  -1608.12079799     A.U. after   18 cycles
 SCF Done:  E(UPBE-PBE) =  -1608.19223322     A.U. after   16 cycles
 SCF Done:  E(UPBE-PBE) =  -1608.23803463     A.U. after   15 cycles
 SCF Done:  E(UPBE-PBE) =  -1608.28107747     A.U. after   13 cycles
 SCF Done:  E(UPBE-PBE) =  -1608.33099604     A.U. after   14 cycles
 SCF Done:  E(UPBE-PBE) =  -1608.36575658     A.U. after   13 cycles
 SCF Done:  E(UPBE-PBE) =  -1608.37947670     A.U. after   11 cycles
 SCF Done:  E(UPBE-PBE) =  -1608.37699642     A.U. after   11 cycles
 SCF Done:  E(UPBE-PBE) =  -1608.39613595     A.U. after   10 cycles
 SCF Done:  E(UPBE-PBE) =  -1608.39683864     A.U. after    7 cycles
 SCF Done:  E(UPBE-PBE) =  -1608.39712964     A.U. after    9 cycles
 SCF Done:  E(UPBE-PBE) =  -1608.39726647     A.U. after    9 cycles
 SCF Done:  E(UPBE-PBE) =  -1608.39729266     A.U. after    8 cycles
 SCF Done:  E(UPBE-PBE) =  -1608.39728371     A.U. after    7 cycles
 SCF Done:  E(UPBE-PBE) =  -1608.39728188     A.U. after    8 cycles
 SCF Done:  E(UPBE-PBE) =  -1608.39729031     A.U. after    5 cycles
 Optimization completed.
    -- Stationary point found.
 Normal termination of Gaussian 16 at Thu May 30 10:52:40 2024.

 ----------------------------------------------------------------------
 #P Geom=AllCheck Guess=TCheck SCRF=Check GenChk UPBEPBE/6-31+G(2df,p)
 Freq
 ----------------------------------------------------------------------

 Structure from the checkpoint file:  "Mn_2_PBE.chk"
 -----
 Title
 -----
 Charge =  2 Multiplicity = 6

 SCF Done:  E(UPBE-PBE) =  -1608.39729031     A.U. after    1 cycles

  Exact polarizability:      62.808       0.001      62.813      -0.001       0.007      62.805
 Approx polarizability:      86.620      -0.007      86.617       0.006       0.004      86.625

                      1                      2                      3
                      A                      A                      A
 Frequencies --     67.7923                68.7381                69.0934
 Red. masses --      4.8850                 4.8723                 4.8613
 Frc consts  --      0.0132                 0.0136                 0.0137
 IR Inten    --      3.7573                 3.7459                 3.7661

                      4                      5                      6
                      A                      A                      A
 Frequencies --     84.8261                85.0448                85.5483
 Red. masses --      5.0486                 5.0508                 5.0522
 Frc consts  --      0.0214                 0.0215                 0.0218
 IR Inten    --      0.0020                 0.0004                 0.0017

                      7                      8                      9
                      A                      A                      A
 Frequencies --    101.0176               101.8205               101.9148
 Red. masses --      5.6567                 5.6372                 5.6720
 Frc consts  --      0.0340                 0.0344                 0.0347
 IR Inten    --      0.3467                 0.3331                 0.3557

                     10                     11                     12
                      A                      A                      A
 Frequencies --    214.7929               216.5766               230.5064
 Red. masses --      1.0079                 1.0079                 5.8146
 Frc consts  --      0.0274                 0.0279                 0.1820
 IR Inten    --      0.0210                 0.0684                 0.0000

                     13                     14                     15
                      A                      A                      A
 Frequencies --    230.7894               268.4393               269.9064
 Red. masses --      5.8150                 1.0439                 1.0447
 Frc consts  --      0.1825                 0.0443                 0.0448
 IR Inten    --      0.0000                 0.0167                 0.0195

                     16                     17                     18
                      A                      A                      A
 Frequencies --    271.0379               297.2720               297.3378
 Red. masses --      1.0440                 3.2838                 3.2704
 Frc consts  --      0.0452                 0.1710                 0.1704
 IR Inten    --      0.2741                34.7601                35.5490

                     19                     20                     21
                      A                      A                      A
 Frequencies --    297.6645               317.1137               340.4916
 Red. masses --      3.3137                 6.0518                 1.0848
 Frc consts  --      0.1730                 0.3586                 0.0741
 IR Inten    --     33.6419                 0.0008                 0.5973

                     22                     23                     24
                      A                      A                      A
 Frequencies --    340.6872               341.2883               351.1748
 Red. masses --      1.0861                 1.0882                 1.3589
 Frc consts  --      0.0743                 0.0747                 0.0987
 IR Inten    --      1.7440                 4.3795               339.2500

                     25                     26                     27
                      A                      A                      A
 Frequencies --    351.7705               352.3255               400.8141
 Red. masses --      1.3512                 1.3389                 1.0079
 Frc consts  --      0.0985                 0.0979                 0.0954
 IR Inten    --    340.7685               336.5959                 0.0988

                     28                     29                     30
                      A                      A                      A
 Frequencies --    495.5434               496.2709               496.6484
 Red. masses --      1.1577                 1.1578                 1.1578
 Frc consts  --      0.1675                 0.1680                 0.1683
 IR Inten    --      0.0689                 1.1113                 2.3541

                     31                     32                     33
                      A                      A                      A
 Frequencies --    507.1324               507.8484               508.3157
 Red. masses --      1.2105                 1.2093                 1.2084
 Frc consts  --      0.1834                 0.1838                 0.1840
 IR Inten    --    246.1127               243.7516               242.7511

                     34                     35                     36
                      A                      A                      A
 Frequencies --   1601.7674              1601.8681              1601.9075
 Red. masses --      1.0888                 1.0889                 1.0889
 Frc consts  --      1.6459                 1.6462                 1.6463
 IR Inten    --    190.3491               182.9601               186.9068

                     37                     38                     39
                      A                      A                      A
 Frequencies --   1602.4252              1602.5184              1610.4715
 Red. masses --      1.0904                 1.0904                 1.0817
 Frc consts  --      1.6497                 1.6498                 1.6530
 IR Inten    --      3.9690                 8.4934                 0.0325

                     40                     41                     42
                      A                      A                      A
 Frequencies --   3656.2287              3657.5692              3658.2956
 Red. masses --      1.0439                 1.0439                 1.0440
 Frc consts  --      8.2222                 8.2281                 8.2317
 IR Inten    --     94.3151                95.9263               132.6387

                     43                     44                     45
                      A                      A                      A
 Frequencies --   3658.6213              3658.7040              3662.2120
 Red. masses --      1.0439                 1.0439                 1.0446
 Frc consts  --      8.2330                 8.2333                 8.2541
 IR Inten    --    112.5334               106.0351                 5.7361

                     46                     47                     48
                      A                      A                      A
 Frequencies --   3749.9532              3751.2678              3751.9191
 Red. masses --      1.0838                 1.0838                 1.0838
 Frc consts  --      8.9793                 8.9857                 8.9886
 IR Inten    --    146.9764               121.8204                82.8670

                     49                     50                     51
                      A                      A                      A
 Frequencies --   3752.4778              3752.5768              3752.5967
 Red. masses --      1.0838                 1.0838                 1.0838
 Frc consts  --      8.9916                 8.9921                 8.9921
 IR Inten    --    214.6240               252.9417               189.8771

 - Thermochemistry -
 -------------------
 Temperature   298.150 Kelvin.  Pressure   1.00000 Atm.
 Atom     1 has atomic number 25 and mass  54.93805

 Molecular mass:   163.00143 amu.
 Principal axes and moments of inertia in atomic units:
                           1         2         3
     Eigenvalues --  1336.218531336.439871336.97574
           X            0.99970  -0.02428   0.00251
           Y            0.02426   0.99965   0.01018
           Z           -0.00276  -0.01011   0.99995
 This molecule is an asymmetric top.
 Rotational symmetry number  1.
 Warning -- assumption of classical behavior for rotation
           may cause significant error
 Rotational temperatures (Kelvin)      0.06482     0.06481     0.06478
 Rotational constants (GHZ):           1.35063     1.35041     1.34987
 Zero-point vibrational energy     378324.5 (Joules/Mol)
                                   90.42174 (Kcal/Mol)
 Warning -- explicit consideration of  33 degrees of freedom as
           vibrations may cause significant error
 Vibrational temperatures:     97.54    98.90    99.41   122.05   122.36
          (Kelvin)            123.08   145.34   146.50   146.63   309.04
                              311.61   331.65   332.05   386.22   388.34
                              389.96   427.71   427.80   428.27   456.26
                              489.89   490.17   491.04   505.26   506.12
                              506.92   576.68   712.98   714.02   714.57
                              729.65   730.68   731.35  2304.59  2304.73
                             2304.79  2305.53  2305.67  2317.11  5260.50
                             5262.43  5263.47  5263.94  5264.06  5269.11
                             5395.35  5397.24  5398.17  5398.98  5399.12
                             5399.15

 Zero-point correction=                           0.144096 (Hartree/Particle)
 Thermal correction to Energy=                    0.162809
 Thermal correction to Enthalpy=                  0.163753
 Thermal correction to Gibbs Free Energy=         0.098028
 Sum of electronic and zero-point Energies=          -1608.253194
 Sum of electronic and thermal Energies=             -1608.234481
 Sum of electronic and thermal Enthalpies=           -1608.233537
 Sum of electronic and thermal Free Energies=        -1608.299262

                     E (Thermal)             CV                S
                      KCal/Mol        Cal/Mol-Kelvin    Cal/Mol-Kelvin
 Total                  102.164             61.427            138.330
 Electronic               0.000              0.000              3.561
 Translational            0.889              2.981             41.174
 Rotational               0.889              2.981             29.258
 Vibrational            100.387             55.466             64.337
 Vibration     1          0.598              1.970              4.216
 Vibration     2          0.598              1.969              4.189
 Vibration     3          0.598              1.969              4.179
 Vibration     4          0.601              1.960              3.776
 Vibration     5          0.601              1.960              3.771
 Vibration     6          0.601              1.959              3.759
 Vibration     7          0.604              1.948              3.435
 Vibration     8          0.604              1.948              3.419
 Vibration     9          0.604              1.948              3.417
 Vibration    10          0.645              1.818              2.003
 Vibration    11          0.645              1.816              1.988
 Vibration    12          0.652              1.794              1.875
 Vibration    13          0.652              1.794              1.873
 Vibration    14          0.673              1.731              1.606
 Vibration    15          0.674              1.729              1.597
 Vibration    16          0.675              1.727              1.590
 Vibration    17          0.691              1.679              1.432
 Vibration    18          0.691              1.679              1.432
 Vibration    19          0.691              1.678              1.430
 Vibration    20          0.704              1.641              1.325
 Vibration    21          0.720              1.595              1.210
 Vibration    22          0.720              1.594              1.209
 Vibration    23          0.721              1.593              1.206
 Vibration    24          0.728              1.573              1.161
 Vibration    25          0.728              1.572              1.158
 Vibration    26          0.729              1.570              1.156
 Vibration    27          0.767              1.468              0.960
 Vibration    28          0.851              1.260              0.669
 Vibration    29          0.852              1.258              0.668
 Vibration    30          0.852              1.257              0.667
 Vibration    31          0.862              1.234              0.641
 Vibration    32          0.863              1.233              0.639
 Vibration    33          0.863              1.232              0.638

 Normal termination of Gaussian 16 at Thu May 30 10:54:05 2024.
 Gaussian 16:  ES64L-G16RevC.02  7-Dec-2021

 ----------------------------------------------------------------------
 #p PBEPBE empiricaldispersion=gd3 scf=(maxcycles=500,xqc,maxconvention
 al=50) scrf=(cpcm,solvent=water) geom=allcheck guess=read chkbasis
 ----------------------------------------------------------------------

 Structure from the checkpoint file:  "Mn_2_PBE.chk_solvated"
 -----
 Title
 -----
 Charge =  2 Multiplicity = 6

                         Standard orientation:
 ---------------------------------------------------------------------
 Center     Atomic      Atomic             Coordinates (Angstroms)
 Number     Number       Type             X           Y           Z
 ---------------------------------------------------------------------
      1         25           0       -0.000353   -0.000364    0.000257
      2          8           0       -1.654360    0.218314    1.420854
      3          1           0       -1.828848   -0.336944    2.203639
      4          8           0       -1.231161   -1.332893   -1.229241
      5          1           0       -0.968191   -1.765230   -2.063091
      6          8           0       -0.742811    1.727142   -1.125658
      7          1           0       -0.503116    2.661992   -0.983765
      8          8           0        1.653100   -0.216863   -1.422044
      9          1           0        2.357455   -0.891204   -1.399419
     10          8           0        1.233894    1.331307    1.227616
     11          1           0        2.151622    1.606853    1.045240
     12          8           0        0.741994   -1.726296    1.128070
     13          1           0        0.499045   -2.660930    0.990935
     14          1           0        1.379954   -1.710085    1.865693
     15          1           0       -2.148787   -1.610349   -1.049440
     16          1           0       -2.360382    0.890922    1.393754
     17          1           0        0.974035    1.764563    2.062027
     18          1           0       -1.377269    1.711771   -1.866753
     19          1           0        1.828071    0.342064   -2.202028
 ---------------------------------------------------------------------

 SCF Done:  E(UPBE-PBE) =  -1608.67054465     A.U. after    9 cycles

 The electronic state is 6-A.
 Alpha  occ. eigenvalues -- -234.19456 -26.91910 -23.06940 -23.06940 -23.06939
 Alpha  occ. eigenvalues --  -18.83694 -18.83693 -18.83693 -18.83693 -18.83692
 Alpha  occ. eigenvalues --  -18.83689  -3.12287  -2.02432  -2.02431  -2.02431
 Alpha  occ. eigenvalues --   -0.98487  -0.98012  -0.98007  -0.98007  -0.97892
 Alpha  occ. eigenvalues --   -0.97888  -0.53203  -0.53201  -0.53199  -0.53135
 Alpha  occ. eigenvalues --   -0.53133  -0.53132  -0.46723  -0.43860  -0.43858
 Alpha  occ. eigenvalues --   -0.42552  -0.42548  -0.42546  -0.33229  -0.33223
 Alpha  occ. eigenvalues --   -0.33218  -0.32223  -0.32221  -0.32219  -0.26210
 Alpha  occ. eigenvalues --   -0.26207  -0.26205  -0.22373  -0.22373
 Alpha virt. eigenvalues --   -0.07239  -0.02850  -0.02849  -0.02845   0.02392
 Alpha virt. eigenvalues --    0.02397   0.02863   0.06605   0.06609   0.06610
 Alpha virt. eigenvalues --    0.07111   0.07114   0.07119   0.09892   0.12454

  Beta  occ. eigenvalues -- -234.19407 -26.84628 -23.01430 -23.01430 -23.01430
  Beta  occ. eigenvalues --  -18.83601 -18.83600 -18.83600 -18.83599 -18.83599
  Beta  occ. eigenvalues --  -18.83596  -2.93627  -1.84107  -1.84106  -1.84105
  Beta  occ. eigenvalues --   -0.98314  -0.97855  -0.97851  -0.97850  -0.97734
  Beta  occ. eigenvalues --   -0.97731  -0.53055  -0.53053  -0.53052  -0.53019
  Beta  occ. eigenvalues --   -0.53017  -0.53016  -0.45783  -0.42280  -0.42277
  Beta  occ. eigenvalues --   -0.42145  -0.42142  -0.42140  -0.32278  -0.32273
  Beta  occ. eigenvalues --   -0.32269  -0.32008  -0.32006  -0.32004
  Beta virt. eigenvalues --   -0.10773  -0.10770  -0.10768  -0.07490  -0.07489
  Beta virt. eigenvalues --   -0.06655  -0.02637  -0.02636  -0.02633   0.02994
  Beta virt. eigenvalues --    0.02998   0.03460   0.07010   0.07014   0.07014

 Mulliken charges and spin densities:
               1          2
     1  Mn   1.143725   4.920778
     2  O   -0.669150   0.004642
     3  H    0.406038   0.004277
     4  O   -0.669296   0.004689
     5  H    0.405993   0.004275
     6  O   -0.669419   0.004651
     7  H    0.406015   0.004275
     8  O   -0.669373   0.004597
     9  H    0.406009   0.004273
    10  O   -0.669422   0.004672
    11  H    0.405946   0.004269
    12  O   -0.669210   0.004679
    13  H    0.406003   0.004274
    14  H    0.406002   0.004272
    15  H    0.405979   0.004274
    16  H    0.406008   0.004271
    17  H    0.406049   0.004282
    18  H    0.406111   0.004281
    19  H    0.405993   0.004271
 Sum of Mulliken charges =   2.00000   5.00000

 Dipole moment (field-independent basis, Debye):
    X=              0.0019    Y=              0.0014    Z=             -0.0027  Tot=              0.0035
 Quadrupole moment (field-independent basis, Debye-Ang):
   XX=            -15.7748   YY=            -15.7719   ZZ=            -15.7847
   XY=             -0.0139   XZ=              0.0000   YZ=              0.0097

 Normal termination of Gaussian 16 at Thu May 30 10:54:41 2024.
