 Gaussian 16, Revision C.02,

 ----------------------------------------------------------------------
 #p PBEPBE empiricaldispersion=gd3 6-31+G(2df,p) opt=(cartesian,calcall
 ,maxcycles=500) freq scf=(maxcycles=500,xqc,maxconventional=50)
 ----------------------------------------------------------------------

 -----
 Title
 -----
 Symbolic Z-matrix:
 Charge =  3 Multiplicity = 5

 SCF Done:  E(UPBE-PBE) =  -1607.54216405     A.U. after   51 cycles
 SCF Done:  E(UPBE-PBE) =  -1607.55057055     a.u. after   19 cycles
 SCF Done:  E(UPBE-PBE) =  -1607.55215204     A.U. after   14 cycles
 SCF Done:  E(UPBE-PBE) =  -1607.58410466     A.U. after   16 cycles
 SCF Done:  E(UPBE-PBE) =  -1607.62510564     A.U. after   24 cycles
 SCF Done:  E(UPBE-PBE) =  -1607.63957855     A.U. after   15 cycles
 SCF Done:  E(UPBE-PBE) =  -1607.67114745     A.U. after   13 cycles
 SCF Done:  E(UPBE-PBE) =  -1607.70494760     A.U. after   14 cycles
 SCF Done:  E(UPBE-PBE) =  -1607.73149921     A.U. after   14 cycles
 SCF Done:  E(UPBE-PBE) =  -1607.75664650     A.U. after   14 cycles
 SCF Done:  E(UPBE-PBE) =  -1607.78251350     A.U. after   10 cycles
 SCF Done:  E(UPBE-PBE) =  -1607.78244261     A.U. after   13 cycles
 SCF Done:  E(UPBE-PBE) =  -1607.78254544     A.U. after   12 cycles
 SCF Done:  E(UPBE-PBE) =  -1607.78253159     A.U. after   13 cycles
 SCF Done:  E(UPBE-PBE) =  -1607.78255516     A.U. after   12 cycles
 SCF Done:  E(UPBE-PBE) =  -1607.78256590     A.U. after   11 cycles
 SCF Done:  E(UPBE-PBE) =  -1607.78256872     A.U. after   11 cycles
 SCF Done:  E(UPBE-PBE) =  -1607.78256910     A.U. after   10 cycles
 Optimization completed.
    -- Stationary point found.
 Normal termination of Gaussian 16 at Thu May 30 10:53:03 2024.

 ----------------------------------------------------------------------
 #P Geom=AllCheck Guess=TCheck SCRF=Check GenChk UPBEPBE/6-31+G(2df,p)
 Freq
 ----------------------------------------------------------------------

 Structure from the checkpoint file:  "Mn_3_PBE.chk"
 -----
 Title
 -----
 Charge =  3 Multiplicity = 5

 SCF Done:  E(UPBE-PBE) =  -1607.78256910     A.U. after    1 cycles

  Exact polarizability:      69.443       0.002      66.417       0.000      -0.010      67.448
 Approx polarizability:     104.878      -0.002     107.883       0.001      -0.021     110.228

                      1                      2                      3
                      A                      A                      A
 Frequencies --     89.8546               104.2441               109.4024
 Red. masses --      3.3360                 5.8933                 8.1960
 Frc consts  --      0.0159                 0.0377                 0.0578
 IR Inten    --      0.0006                 3.1245                42.2995

                      4                      5                      6
                      A                      A                      A
 Frequencies --    112.1744               133.4711               139.7023
 Red. masses --      5.0864                 4.7966                 3.9199
 Frc consts  --      0.0377                 0.0503                 0.0451
 IR Inten    --      8.1147                 0.0000                 0.0000

                      7                      8                      9
                      A                      A                      A
 Frequencies --    161.3707               162.1281               167.6906
 Red. masses --      5.2035                 3.8450                 7.7975
 Frc consts  --      0.0798                 0.0595                 0.1292
 IR Inten    --      0.0007                26.4361                33.8808

                     10                     11                     12
                      A                      A                      A
 Frequencies --    200.0979               222.5468               223.2809
 Red. masses --      3.9930                 1.1627                 1.1067
 Frc consts  --      0.0942                 0.0339                 0.0325
 IR Inten    --      0.9888                 0.0006                 0.0004

                     13                     14                     15
                      A                      A                      A
 Frequencies --    282.0377               283.6760               288.1908
 Red. masses --      1.3014                 1.0085                 5.3462
 Frc consts  --      0.0610                 0.0478                 0.2616
 IR Inten    --    236.2172                 0.6748                 0.0001

                     16                     17                     18
                      A                      A                      A
 Frequencies --    288.4944               299.8068               346.6520
 Red. masses --      1.1957                 1.0191                 3.4269
 Frc consts  --      0.0586                 0.0540                 0.2426
 IR Inten    --      0.0003                 0.0713               192.3197

                     19                     20                     21
                      A                      A                      A
 Frequencies --    359.2664               377.7609               398.9596
 Red. masses --      1.0536                 1.0419                 1.0141
 Frc consts  --      0.0801                 0.0876                 0.0951
 IR Inten    --    412.8598                 0.0004                 0.0000

                     22                     23                     24
                      A                      A                      A
 Frequencies --    432.6245               460.4061               468.9531
 Red. masses --      6.0465                 2.3745                 4.8209
 Frc consts  --      0.6668                 0.2966                 0.6247
 IR Inten    --      0.0001                82.9691                 6.6572

                     25                     26                     27
                      A                      A                      A
 Frequencies --    477.3195               488.3484               501.2198
 Red. masses --      1.0078                 1.1254                 1.5274
 Frc consts  --      0.1353                 0.1581                 0.2261
 IR Inten    --      0.0018                 0.0000               344.4435

                     28                     29                     30
                      A                      A                      A
 Frequencies --    574.5602               587.4965               656.2761
 Red. masses --      1.1358                 1.2905                 1.1596
 Frc consts  --      0.2209                 0.2624                 0.2943
 IR Inten    --      0.0000               224.1969                 0.0000

                     31                     32                     33
                      A                      A                      A
 Frequencies --    669.9391               689.9950               703.1634
 Red. masses --      1.1508                 1.2317                 1.3062
 Frc consts  --      0.3043                 0.3455                 0.3805
 IR Inten    --      0.0001               146.1010               131.9924

                     34                     35                     36
                      A                      A                      A
 Frequencies --   1559.9195              1568.5694              1586.7305
 Red. masses --      1.1170                 1.0994                 1.0961
 Frc consts  --      1.6014                 1.5937                 1.6259
 IR Inten    --      0.0000               169.5290               150.9643

                     37                     38                     39
                      A                      A                      A
 Frequencies --   1598.3039              1615.3569              1621.7473
 Red. masses --      1.0883                 1.0867                 1.0818
 Frc consts  --      1.6380                 1.6707                 1.6764
 IR Inten    --      0.0001               182.7418                 0.0002

                     40                     41                     42
                      A                      A                      A
 Frequencies --   3517.8649              3520.8897              3536.3172
 Red. masses --      1.0422                 1.0415                 1.0427
 Frc consts  --      7.5994                 7.6072                 7.6830
 IR Inten    --    812.8908                 0.0635               800.6557

                     43                     44                     45
                      A                      A                      A
 Frequencies --   3546.2084              3573.9430              3582.1589
 Red. masses --      1.0432                 1.0444                 1.0450
 Frc consts  --      7.7296                 7.8600                 7.9004
 IR Inten    --      0.0151               561.7239                 0.0009

                     46                     47                     48
                      A                      A                      A
 Frequencies --   3611.7831              3612.8679              3626.2244
 Red. masses --      1.0875                 1.0877                 1.0870
 Frc consts  --      8.3581                 8.3653                 8.4219
 IR Inten    --      0.3033               601.9864                 1.5154

                     49                     50                     51
                      A                      A                      A
 Frequencies --   3627.1566              3653.8834              3654.3989
 Red. masses --      1.0873                 1.0837                 1.0837
 Frc consts  --      8.4280                 8.5244                 8.5272
 IR Inten    --    562.6881                 0.0008               464.6230

 - Thermochemistry -
 -------------------
 Temperature   298.150 Kelvin.  Pressure   1.00000 Atm.
 Atom     1 has atomic number 25 and mass  54.93805

 Molecular mass:   163.00143 amu.
 Principal axes and moments of inertia in atomic units:
                           1         2         3
     Eigenvalues --  1097.724771202.537751207.59968
           X            1.00000   0.00021   0.00001
           Y           -0.00021   1.00000   0.00151
           Z           -0.00001  -0.00151   1.00000
 This molecule is an asymmetric top.
 Rotational symmetry number  1.
 Warning -- assumption of classical behavior for rotation
           may cause significant error
 Rotational temperatures (Kelvin)      0.07890     0.07203     0.07172
 Rotational constants (GHZ):           1.64407     1.50078     1.49449
 Zero-point vibrational energy     383256.2 (Joules/Mol)
                                   91.60043 (Kcal/Mol)
 Warning -- explicit consideration of  29 degrees of freedom as
           vibrations may cause significant error
 Vibrational temperatures:    129.28   149.98   157.41   161.39   192.04
          (Kelvin)            201.00   232.18   233.27   241.27   287.90
                              320.20   321.25   405.79   408.15   414.64
                              415.08   431.36   498.75   516.90   543.51
                              574.01   622.45   662.42   674.72   686.76
                              702.62   721.14   826.66   845.28   944.23
                              963.89   992.75  1011.70  2244.38  2256.82
                             2282.95  2299.60  2324.14  2333.33  5061.42
                             5065.78  5087.97  5102.20  5142.11  5153.93
                             5196.55  5198.11  5217.33  5218.67  5257.12
                             5257.86

 Zero-point correction=                           0.145975 (Hartree/Particle)
 Thermal correction to Energy=                    0.162380
 Thermal correction to Enthalpy=                  0.163325
 Thermal correction to Gibbs Free Energy=         0.104171
 Sum of electronic and zero-point Energies=          -1607.636595
 Sum of electronic and thermal Energies=             -1607.620189
 Sum of electronic and thermal Enthalpies=           -1607.619245
 Sum of electronic and thermal Free Energies=        -1607.678398

                     E (Thermal)             CV                S
                      KCal/Mol        Cal/Mol-Kelvin    Cal/Mol-Kelvin
 Total                  101.895             57.120            124.499
 Electronic               0.000              0.000              3.198
 Translational            0.889              2.981             41.174
 Rotational               0.889              2.981             28.857
 Vibrational            100.118             51.159             51.270
 Vibration     1          0.602              1.956              3.663
 Vibration     2          0.605              1.946              3.373
 Vibration     3          0.606              1.942              3.279
 Vibration     4          0.607              1.939              3.231
 Vibration     5          0.613              1.920              2.895
 Vibration     6          0.615              1.914              2.808
 Vibration     7          0.622              1.890              2.534
 Vibration     8          0.622              1.889              2.525
 Vibration     9          0.624              1.882              2.461
 Vibration    10          0.638              1.840              2.132
 Vibration    11          0.648              1.807              1.938
 Vibration    12          0.649              1.806              1.932
 Vibration    13          0.681              1.707              1.521
 Vibration    14          0.682              1.704              1.511
 Vibration    15          0.685              1.696              1.485
 Vibration    16          0.685              1.695              1.483
 Vibration    17          0.692              1.674              1.418
 Vibration    18          0.725              1.582              1.181
 Vibration    19          0.734              1.556              1.125
 Vibration    20          0.748              1.518              1.048
 Vibration    21          0.765              1.472              0.966
 Vibration    22          0.794              1.399              0.850
 Vibration    23          0.818              1.338              0.765
 Vibration    24          0.826              1.319              0.740
 Vibration    25          0.834              1.300              0.717
 Vibration    26          0.844              1.276              0.688
 Vibration    27          0.857              1.247              0.655
 Vibration    28          0.931              1.086              0.496
 Vibration    29          0.945              1.058              0.472

 Optimization completed.
    -- Stationary point found.
 Normal termination of Gaussian 16 at Thu May 30 10:54:33 2024.
 Gaussian 16:  ES64L-G16RevC.02  7-Dec-2021

 ----------------------------------------------------------------------
 #p PBEPBE empiricaldispersion=gd3 scf=(maxcycles=500,xqc,maxconvention
 al=50) scrf=(cpcm,solvent=water) geom=allcheck guess=read chkbasis
 ----------------------------------------------------------------------

 Structure from the checkpoint file:  "Mn_3_PBE.chk_solvated"
 -----
 Title
 -----
 Charge =  3 Multiplicity = 5

                         Standard orientation:
 ---------------------------------------------------------------------
 Center     Atomic      Atomic             Coordinates (Angstroms)
 Number     Number       Type             X           Y           Z
 ---------------------------------------------------------------------
      1         25           0       -0.000012   -0.000002    0.000004
      2          8           0        0.000118    0.019098   -1.971806
      3          1           0       -0.804765    0.023831   -2.540555
      4          8           0        0.001420   -1.981520   -0.018941
      5          1           0        0.001080   -2.562854    0.775469
      6          8           0        2.168142    0.001266    0.000011
      7          1           0        2.762335    0.783292    0.007434
      8          8           0        0.000086   -0.019103    1.971814
      9          1           0       -0.804830   -0.024489    2.540521
     10          8           0       -0.001721    1.981514    0.018936
     11          1           0       -0.001191    2.562862   -0.775427
     12          8           0       -2.168115   -0.001251   -0.000031
     13          1           0       -2.762316   -0.783271   -0.007432
     14          1           0       -2.762884    0.780340    0.007364
     15          1           0        0.001037   -2.547721   -0.824166
     16          1           0        0.805130    0.024553   -2.540367
     17          1           0       -0.000732    2.547717    0.824213
     18          1           0        2.762935   -0.780306   -0.007434
     19          1           0        0.805073   -0.023926    2.540420
 ---------------------------------------------------------------------

 SCF Done:  E(UPBE-PBE) =  -1608.42104295     A.U. after   12 cycles

 The electronic state is 5-A.
 Alpha  occ. eigenvalues -- -234.36650 -27.09549 -23.25127 -23.25051 -23.23770
 Alpha  occ. eigenvalues --  -18.91119 -18.91119 -18.90649 -18.90649 -18.86816
 Alpha  occ. eigenvalues --  -18.86816  -3.25848  -2.16342  -2.16189  -2.14515
 Alpha  occ. eigenvalues --   -1.05145  -1.04495  -1.04109  -1.04098  -1.00760
 Alpha  occ. eigenvalues --   -1.00708  -0.59930  -0.59649  -0.59615  -0.59251
 Alpha  occ. eigenvalues --   -0.55537  -0.55476  -0.55401  -0.54217  -0.50045
 Alpha  occ. eigenvalues --   -0.49918  -0.49577  -0.46328  -0.43593  -0.42395
 Alpha  occ. eigenvalues --   -0.40031  -0.39144  -0.38499  -0.36005  -0.35259
 Alpha  occ. eigenvalues --   -0.34775  -0.33894  -0.30671
 Alpha virt. eigenvalues --   -0.28730  -0.08549  -0.04298  -0.04130  -0.03710
 Alpha virt. eigenvalues --    0.00511   0.00899   0.02891   0.04265   0.04314
 Alpha virt. eigenvalues --    0.04340   0.04358   0.05313   0.05824   0.10029

  Beta  occ. eigenvalues -- -234.36607 -27.03520 -23.20933 -23.20823 -23.18504
  Beta  occ. eigenvalues --  -18.91050 -18.91050 -18.90588 -18.90588 -18.86593
  Beta  occ. eigenvalues --  -18.86593  -3.10796  -2.02664  -2.02423  -1.97662
  Beta  occ. eigenvalues --   -1.04941  -1.04307  -1.03946  -1.03926  -1.00364
  Beta  occ. eigenvalues --   -1.00317  -0.59700  -0.59551  -0.59355  -0.59173
  Beta  occ. eigenvalues --   -0.55222  -0.55180  -0.54570  -0.52530  -0.49964
  Beta  occ. eigenvalues --   -0.49824  -0.47117  -0.45654  -0.39671  -0.39161
  Beta  occ. eigenvalues --   -0.38670  -0.38040  -0.35210  -0.34723
  Beta virt. eigenvalues --   -0.24839  -0.23970  -0.23282  -0.21569  -0.18833
  Beta virt. eigenvalues --   -0.08156  -0.04133  -0.03974  -0.03481   0.00723
  Beta virt. eigenvalues --    0.01211   0.03146   0.04469   0.04518   0.04567

 Mulliken charges and spin densities:
               1          2
     1  Mn   1.307979   3.805852
     2  O   -0.588245   0.018422
     3  H    0.450286   0.000646
     4  O   -0.592568   0.014707
     5  H    0.448001   0.000316
     6  O   -0.617482   0.053095
     7  H    0.423886   0.004460
     8  O   -0.588248   0.018422
     9  H    0.450289   0.000646
    10  O   -0.592571   0.014707
    11  H    0.447991   0.000316
    12  O   -0.617449   0.053116
    13  H    0.423886   0.004460
    14  H    0.423881   0.004457
    15  H    0.447952   0.000314
    16  H    0.450282   0.000646
    17  H    0.447966   0.000315
    18  H    0.423881   0.004458
    19  H    0.450283   0.000646
 Sum of Mulliken charges =   3.00000   4.00000

 Dipole moment (field-independent basis, Debye):
    X=              0.0017    Y=              0.0000    Z=              0.0002  Tot=              0.0017
 Quadrupole moment (field-independent basis, Debye-Ang):
   XX=             -8.2939   YY=             -6.8056   ZZ=             -6.3926
   XY=              0.0120   XZ=              0.0009   YZ=              0.0002

 Normal termination of Gaussian 16 at Thu May 30 10:55:19 2024.
