 Gaussian 16, Revision C.02,

 ----------------------------------------------------------------------
 #p PBEPBE empiricaldispersion=gd3 6-31+G(2df,p) opt=(cartesian,calcall
 ,maxcycles=500) freq scf=(maxcycles=500,xqc,maxconventional=50)
 ----------------------------------------------------------------------

 -----
 Title
 -----
 Symbolic Z-matrix:
 Charge =  2 Multiplicity = 3

 SCF Done:  E(UPBE-PBE) =  -1306.61197516     A.U. after   25 cycles
 SCF Done:  E(UPBE-PBE) =  -1306.65185917     A.U. after   18 cycles
 SCF Done:  E(UPBE-PBE) =  -1306.71672358     A.U. after   18 cycles
 SCF Done:  E(UPBE-PBE) =  -1306.76269269     A.U. after   18 cycles
 SCF Done:  E(UPBE-PBE) =  -1306.72189935     A.U. after   20 cycles
 SCF Done:  E(UPBE-PBE) =  -1306.79699436     A.U. after   19 cycles
 SCF Done:  E(UPBE-PBE) =  -1306.83977784     A.U. after   18 cycles
 SCF Done:  E(UPBE-PBE) =  -1306.88162445     A.U. after   17 cycles
 SCF Done:  E(UPBE-PBE) =  -1306.87849495     A.U. after   17 cycles
 SCF Done:  E(UPBE-PBE) =  -1306.88522051     A.U. after   16 cycles
 SCF Done:  E(UPBE-PBE) =  -1306.92010360     A.U. after    9 cycles
 SCF Done:  E(UPBE-PBE) =  -1306.92010507     A.U. after    2 cycles
 SCF Done:  E(UPBE-PBE) =  -1306.92010195     A.U. after   10 cycles
 SCF Done:  E(UPBE-PBE) =  -1306.92010251     A.U. after    9 cycles
 SCF Done:  E(UPBE-PBE) =  -1306.92010507     A.U. after    2 cycles
 SCF Done:  E(UPBE-PBE) =  -1306.92010296     A.U. after   10 cycles
 SCF Done:  E(UPBE-PBE) =  -1306.92010097     A.U. after   10 cycles
 SCF Done:  E(UPBE-PBE) =  -1306.92010486     A.U. after    5 cycles
 Optimization completed.
    -- Stationary point found.
 Normal termination of Gaussian 16 at Thu May 30 11:20:43 2024.

 ----------------------------------------------------------------------
 #P Geom=AllCheck Guess=TCheck SCRF=Check GenChk UPBEPBE/6-31+G(2df,p)
 Freq
 ----------------------------------------------------------------------

 Structure from the checkpoint file:  "Ti_2_PBE.chk"
 -----
 Title
 -----
 Charge =  2 Multiplicity = 3

 SCF Done:  E(UPBE-PBE) =  -1306.92010486     A.U. after    1 cycles

  Exact polarizability:      65.299      -0.001      65.299      -0.014       0.003      62.010
 Approx polarizability:      92.684      -0.000      92.690      -0.025       0.012      85.357

                      1                      2                      3
                      A                      A                      A
 Frequencies --     71.9582                73.2662                75.1516
 Red. masses --      5.8143                 5.7634                 4.8039
 Frc consts  --      0.0177                 0.0182                 0.0160
 IR Inten    --      4.0110                 4.0140                 0.0001

                      4                      5                      6
                      A                      A                      A
 Frequencies --     76.2478                96.2441               100.4653
 Red. masses --      4.8177                 5.8520                 5.4769
 Frc consts  --      0.0165                 0.0319                 0.0326
 IR Inten    --      0.0003                 0.0000                 2.9933

                      7                      8                      9
                      A                      A                      A
 Frequencies --    109.7439               110.2833               118.3090
 Red. masses --      2.7164                 2.7297                 4.0438
 Frc consts  --      0.0193                 0.0196                 0.0333
 IR Inten    --      1.3880                 1.3686                 2.0806

                     10                     11                     12
                      A                      A                      A
 Frequencies --    179.8505               180.4358               205.8736
 Red. masses --      1.3936                 1.3988                 1.2440
 Frc consts  --      0.0266                 0.0268                 0.0311
 IR Inten    --      0.0011                 0.0003                23.4563

                     13                     14                     15
                      A                      A                      A
 Frequencies --    206.3013               228.8084               285.3221
 Red. masses --      1.2392                 1.0197                 2.2854
 Frc consts  --      0.0311                 0.0315                 0.1096
 IR Inten    --     23.0089                 0.0007                 0.0014

                     16                     17                     18
                      A                      A                      A
 Frequencies --    285.5006               316.9374               319.8770
 Red. masses --      2.2736                 5.7802                 1.9880
 Frc consts  --      0.1092                 0.3421                 0.1198
 IR Inten    --      0.0001                 0.0001               111.0109

                     19                     20                     21
                      A                      A                      A
 Frequencies --    335.6564               335.7341               344.4186
 Red. masses --      1.1486                 1.1488                 2.2654
 Frc consts  --      0.0762                 0.0763                 0.1583
 IR Inten    --      0.0032                 0.0051                82.4781

                     22                     23                     24
                      A                      A                      A
 Frequencies --    344.7892               358.7472               370.1618
 Red. masses --      2.2708                 1.1390                 1.4866
 Frc consts  --      0.1591                 0.0864                 0.1200
 IR Inten    --     82.2078                28.2415               210.7913

                     25                     26                     27
                      A                      A                      A
 Frequencies --    370.3191               381.7692               388.3048
 Red. masses --      1.4899                 1.1051                 1.6151
 Frc consts  --      0.1204                 0.0949                 0.1435
 IR Inten    --    210.6428                 0.0098               483.4407

                     28                     29                     30
                      A                      A                      A
 Frequencies --    479.4558               528.4566               529.1108
 Red. masses --      1.1388                 1.1377                 1.1369
 Frc consts  --      0.1542                 0.1872                 0.1875
 IR Inten    --      0.0002                 0.1409                 0.0230

                     31                     32                     33
                      A                      A                      A
 Frequencies --    530.1662               561.9112               562.3940
 Red. masses --      1.2350                 1.2796                 1.2781
 Frc consts  --      0.2045                 0.2381                 0.2382
 IR Inten    --    121.7869               202.7052               202.6146

                     34                     35                     36
                      A                      A                      A
 Frequencies --   1617.0915              1617.1512              1617.9684
 Red. masses --      1.0881                 1.0881                 1.0882
 Frc consts  --      1.6764                 1.6765                 1.6784
 IR Inten    --    179.9678               180.0481                 0.0318

                     37                     38                     39
                      A                      A                      A
 Frequencies --   1618.0335              1620.8055              1628.9050
 Red. masses --      1.0882                 1.0876                 1.0819
 Frc consts  --      1.6785                 1.6834                 1.6914
 IR Inten    --      0.0189               211.5244                 0.0003

                     40                     41                     42
                      A                      A                      A
 Frequencies --   3657.4217              3657.4779              3658.9379
 Red. masses --      1.0440                 1.0441                 1.0443
 Frc consts  --      8.2285                 8.2288                 8.2375
 IR Inten    --      0.2491                 0.1468               200.8098

                     43                     44                     45
                      A                      A                      A
 Frequencies --   3658.9993              3661.0991              3664.0735
 Red. masses --      1.0443                 1.0443                 1.0450
 Frc consts  --      8.2378                 8.2470                 8.2658
 IR Inten    --    200.8894               170.0462                 0.0359

                     46                     47                     48
                      A                      A                      A
 Frequencies --   3737.3131              3737.3908              3738.7216
 Red. masses --      1.0836                 1.0836                 1.0830
 Frc consts  --      8.9174                 8.9177                 8.9192
 IR Inten    --      0.3315                 0.1790               206.0102

                     49                     50                     51
                      A                      A                      A
 Frequencies --   3739.3909              3740.5604              3740.6314
 Red. masses --      1.0832                 1.0832                 1.0831
 Frc consts  --      8.9244                 8.9292                 8.9295
 IR Inten    --      1.2383               402.3688               402.2498

 - Thermochemistry -
 -------------------
 Temperature   298.150 Kelvin.  Pressure   1.00000 Atm.
 Atom     1 has atomic number 22 and mass  47.94795

 Molecular mass:   156.01133 amu.
 Principal axes and moments of inertia in atomic units:
                           1         2         3
     Eigenvalues --  1324.899941325.533831389.90722
           X            0.99999   0.00476  -0.00018
           Y           -0.00476   0.99999   0.00007
           Z            0.00018  -0.00007   1.00000
 This molecule is an asymmetric top.
 Rotational symmetry number  1.
 Warning -- assumption of classical behavior for rotation
           may cause significant error
 Rotational temperatures (Kelvin)      0.06537     0.06534     0.06232
 Rotational constants (GHZ):           1.36217     1.36152     1.29846
 Zero-point vibrational energy     380256.6 (Joules/Mol)
                                   90.88351 (Kcal/Mol)
 Warning -- explicit consideration of  33 degrees of freedom as
           vibrations may cause significant error
 Vibrational temperatures:    103.53   105.41   108.13   109.70   138.47
          (Kelvin)            144.55   157.90   158.67   170.22   258.76
                              259.61   296.21   296.82   329.20   410.51
                              410.77   456.00   460.23   482.93   483.05
                              495.54   496.07   516.16   532.58   532.81
                              549.28   558.68   689.83   760.33   761.27
                              762.79   808.46   809.16  2326.63  2326.72
                             2327.90  2327.99  2331.98  2343.63  5262.21
                             5262.29  5264.40  5264.48  5267.51  5271.78
                             5377.16  5377.27  5379.19  5380.15  5381.83
                             5381.93

 Zero-point correction=                           0.144832 (Hartree/Particle)
 Thermal correction to Energy=                    0.163290
 Thermal correction to Enthalpy=                  0.164234
 Thermal correction to Gibbs Free Energy=         0.099913
 Sum of electronic and zero-point Energies=          -1306.775273
 Sum of electronic and thermal Energies=             -1306.756815
 Sum of electronic and thermal Enthalpies=           -1306.755870
 Sum of electronic and thermal Free Energies=        -1306.820192

                     E (Thermal)             CV                S
                      KCal/Mol        Cal/Mol-Kelvin    Cal/Mol-Kelvin
 Total                  102.466             60.795            135.375
 Electronic               0.000              0.000              2.183
 Translational            0.889              2.981             41.044
 Rotational               0.889              2.981             29.280
 Vibrational            100.689             54.833             62.868
 Vibration     1          0.598              1.967              4.099
 Vibration     2          0.599              1.967              4.064
 Vibration     3          0.599              1.966              4.014
 Vibration     4          0.599              1.965              3.985
 Vibration     5          0.603              1.952              3.529
 Vibration     6          0.604              1.949              3.445
 Vibration     7          0.606              1.941              3.273
 Vibration     8          0.606              1.941              3.264
 Vibration     9          0.608              1.934              3.128
 Vibration    10          0.629              1.867              2.330
 Vibration    11          0.629              1.866              2.324
 Vibration    12          0.640              1.832              2.080
 Vibration    13          0.641              1.831              2.076
 Vibration    14          0.651              1.797              1.888
 Vibration    15          0.683              1.701              1.502
 Vibration    16          0.683              1.701              1.500
 Vibration    17          0.704              1.641              1.326
 Vibration    18          0.706              1.636              1.311
 Vibration    19          0.717              1.604              1.233
 Vibration    20          0.717              1.604              1.232
 Vibration    21          0.723              1.587              1.192
 Vibration    22          0.723              1.586              1.190
 Vibration    23          0.734              1.557              1.128
 Vibration    24          0.742              1.534              1.079
 Vibration    25          0.742              1.533              1.078
 Vibration    26          0.751              1.509              1.032
 Vibration    27          0.756              1.495              1.007
 Vibration    28          0.836              1.296              0.712
 Vibration    29          0.883              1.187              0.591
 Vibration    30          0.884              1.186              0.589
 Vibration    31          0.885              1.183              0.587
 Vibration    32          0.918              1.114              0.520
 Vibration    33          0.918              1.113              0.519

 Normal termination of Gaussian 16 at Thu May 30 11:22:12 2024.
 Gaussian 16:  ES64L-G16RevC.02  7-Dec-2021

 ----------------------------------------------------------------------
 #p PBEPBE empiricaldispersion=gd3 scf=(maxcycles=500,xqc,maxconvention
 al=50) scrf=(cpcm,solvent=water) geom=allcheck guess=read chkbasis
 ----------------------------------------------------------------------

 Structure from the checkpoint file:  "Ti_2_PBE.chk_solvated"
 -----
 Title
 -----
 Charge =  2 Multiplicity = 3

                         Standard orientation:
 ---------------------------------------------------------------------
 Center     Atomic      Atomic             Coordinates (Angstroms)
 Number     Number       Type             X           Y           Z
 ---------------------------------------------------------------------
      1         22           0        0.000035   -0.000124   -0.000009
      2          8           0       -0.611128    1.722428   -1.224736
      3          1           0       -0.074397    2.194289   -1.888145
      4          8           0       -1.790708    0.332319    1.234256
      5          1           0       -2.575672   -0.244767    1.284274
      6          8           0       -1.190460   -1.383893   -1.228195
      7          1           0       -1.083810   -2.352224   -1.279579
      8          8           0        0.611063   -1.722294    1.225172
      9          1           0        1.503270   -2.114186    1.270656
     10          8           0        1.790695   -0.332301   -1.234374
     11          1           0        2.575498    0.244977   -1.284451
     12          8           0        1.190459    1.384016    1.227892
     13          1           0        1.083982    2.352413    1.278434
     14          1           0        1.869282    1.151479    1.888186
     15          1           0       -1.926851    1.032827    1.898812
     16          1           0       -1.503208    2.114705   -1.269381
     17          1           0        1.927422   -1.033298   -1.898265
     18          1           0       -1.869449   -1.150946   -1.888187
     19          1           0        0.073789   -2.194747    1.887719
 ---------------------------------------------------------------------

 SCF Done:  E(UPBE-PBE) =  -1307.19442411     A.U. after   12 cycles

 The electronic state is 3-A.
 Alpha  occ. eigenvalues -- -177.66079 -19.44178 -18.83555 -18.83554 -18.83553
 Alpha  occ. eigenvalues --  -18.83552 -18.83552 -18.83552 -16.23255 -16.22560
 Alpha  occ. eigenvalues --  -16.22559  -2.21261  -1.37489  -1.36719  -1.36719
 Alpha  occ. eigenvalues --   -0.98319  -0.97834  -0.97832  -0.97821  -0.97820
 Alpha  occ. eigenvalues --   -0.97769  -0.53253  -0.53252  -0.53004  -0.53002
 Alpha  occ. eigenvalues --   -0.52879  -0.52597  -0.45132  -0.42744  -0.42741
 Alpha  occ. eigenvalues --   -0.41780  -0.41778  -0.41517  -0.33378  -0.32370
 Alpha  occ. eigenvalues --   -0.32090  -0.32089  -0.32021  -0.32021  -0.11330
 Alpha  occ. eigenvalues --   -0.11328
 Alpha virt. eigenvalues --   -0.08696  -0.06572  -0.03799  -0.03797  -0.02929
 Alpha virt. eigenvalues --   -0.02926  -0.02703   0.02767   0.03313   0.03314
 Alpha virt. eigenvalues --    0.06296   0.06300   0.06738   0.06739   0.07402

  Beta  occ. eigenvalues -- -177.66079 -19.42460 -18.83559 -18.83558 -18.83557
  Beta  occ. eigenvalues --  -18.83556 -18.83555 -18.83555 -16.22217 -16.21090
  Beta  occ. eigenvalues --  -16.21089  -2.15441  -1.33034  -1.30254  -1.30252
  Beta  occ. eigenvalues --   -0.98275  -0.97807  -0.97805  -0.97764  -0.97763
  Beta  occ. eigenvalues --   -0.97727  -0.53178  -0.53176  -0.52951  -0.52949
  Beta  occ. eigenvalues --   -0.52841  -0.52559  -0.44762  -0.42565  -0.42562
  Beta  occ. eigenvalues --   -0.41652  -0.41649  -0.41433  -0.33242  -0.32312
  Beta  occ. eigenvalues --   -0.31958  -0.31958  -0.31909  -0.31908
  Beta virt. eigenvalues --   -0.06330  -0.05605  -0.02945  -0.02940  -0.02802
  Beta virt. eigenvalues --   -0.02799  -0.02612  -0.01782  -0.01781   0.02903
  Beta virt. eigenvalues --    0.04237   0.04238   0.06394   0.06398   0.07007

 Mulliken charges and spin densities:
               1          2
     1  Ti   1.207225   2.097871
     2  O   -0.683866  -0.021197
     3  H    0.410221   0.001506
     4  O   -0.683824  -0.021235
     5  H    0.405656   0.003407
     6  O   -0.683768  -0.021224
     7  H    0.405699   0.003406
     8  O   -0.683700  -0.021216
     9  H    0.405678   0.003405
    10  O   -0.683685  -0.021246
    11  H    0.405641   0.003407
    12  O   -0.683788  -0.021213
    13  H    0.405695   0.003404
    14  H    0.410242   0.001504
    15  H    0.410238   0.001496
    16  H    0.405685   0.003404
    17  H    0.410209   0.001501
    18  H    0.410244   0.001506
    19  H    0.410196   0.001513
 Sum of Mulliken charges =   2.00000   2.00000

 Dipole moment (field-independent basis, Debye):
    X=              0.0002    Y=             -0.0009    Z=              0.0001  Tot=              0.0009
 Quadrupole moment (field-independent basis, Debye-Ang):
   XX=            -14.3785   YY=            -14.3724   ZZ=            -19.1456
   XY=              0.0045   XZ=             -0.0131   YZ=              0.0046

 Normal termination of Gaussian 16 at Thu May 30 11:22:59 2024.
