 Gaussian 16, Revision C.02,

 ----------------------------------------------------------------------
 #p PBEPBE empiricaldispersion=gd3 6-31+G(2df,p) opt=(cartesian,calcall
 ,maxcycles=500) freq scf=(maxcycles=500,xqc,maxconventional=50)
 ----------------------------------------------------------------------

 -----
 Title
 -----
 Symbolic Z-matrix:
 Charge =  3 Multiplicity = 2

 SCF Done:  E(UPBE-PBE) =  -1306.09989523     A.U. after   19 cycles
 SCF Done:  E(UPBE-PBE) =  -1306.13756454     A.U. after   15 cycles
 SCF Done:  E(UPBE-PBE) =  -1306.19934504     A.U. after   16 cycles
 SCF Done:  E(UPBE-PBE) =  -1306.24790915     A.U. after   15 cycles
 SCF Done:  E(UPBE-PBE) =  -1306.27727748     A.U. after   14 cycles
 SCF Done:  E(UPBE-PBE) =  -1306.31618684     A.U. after   16 cycles
 SCF Done:  E(UPBE-PBE) =  -1306.32499602     A.U. after   16 cycles
 SCF Done:  E(UPBE-PBE) =  -1306.35329443     A.U. after   16 cycles
 SCF Done:  E(UPBE-PBE) =  -1306.37098125     A.U. after   18 cycles
 SCF Done:  E(UPBE-PBE) =  -1306.38315117     A.U. after   16 cycles
 SCF Done:  E(UPBE-PBE) =  -1306.40187055     A.U. after    2 cycles
 SCF Done:  E(UPBE-PBE) =  -1306.40186721     A.U. after   10 cycles
 SCF Done:  E(UPBE-PBE) =  -1306.40186815     A.U. after   10 cycles
 SCF Done:  E(UPBE-PBE) =  -1306.40186387     A.U. after    8 cycles
 SCF Done:  E(UPBE-PBE) =  -1306.40187055     A.U. after    2 cycles
 SCF Done:  E(UPBE-PBE) =  -1306.40186945     A.U. after   10 cycles
 SCF Done:  E(UPBE-PBE) =  -1306.40186779     A.U. after   10 cycles
 SCF Done:  E(UPBE-PBE) =  -1306.40186977     A.U. after    6 cycles
 Optimization completed.
    -- Stationary point found.
 Normal termination of Gaussian 16 at Thu May 30 11:19:42 2024.

 ----------------------------------------------------------------------
 #P Geom=AllCheck Guess=TCheck SCRF=Check GenChk UPBEPBE/6-31+G(2df,p)
 Freq
 ----------------------------------------------------------------------

 Structure from the checkpoint file:  "Ti_3_PBE.chk"
 -----
 Title
 -----
 Charge =  3 Multiplicity = 2

 SCF Done:  E(UPBE-PBE) =  -1306.40186977     A.U. after    1 cycles

  Exact polarizability:      65.820      -0.002      65.809       0.001      -0.002      66.579
 Approx polarizability:      99.742      -0.002      99.723      -0.001      -0.010     104.324

                      1                      2                      3
                      A                      A                      A
 Frequencies --     99.3866               109.9540               112.1158
 Red. masses --      4.8735                 4.4101                 4.4365
 Frc consts  --      0.0284                 0.0314                 0.0329
 IR Inten    --      0.4099                 0.5272                 0.5358

                      4                      5                      6
                      A                      A                      A
 Frequencies --    157.0606               157.4920               158.1244
 Red. masses --      4.6411                 5.0529                 3.5136
 Frc consts  --      0.0675                 0.0738                 0.0518
 IR Inten    --      0.0003                 0.0004                 0.0000

                      7                      8                      9
                      A                      A                      A
 Frequencies --    169.9157               170.1068               170.2681
 Red. masses --      4.0145                 3.8900                 4.2650
 Frc consts  --      0.0683                 0.0663                 0.0729
 IR Inten    --      0.4999                 0.4961                 0.4760

                     10                     11                     12
                      A                      A                      A
 Frequencies --    247.3704               256.5402               257.1067
 Red. masses --      1.0938                 1.1511                 1.1517
 Frc consts  --      0.0394                 0.0446                 0.0449
 IR Inten    --      0.0322                 0.0041                 0.0060

                     13                     14                     15
                      A                      A                      A
 Frequencies --    264.8039               265.1097               340.3689
 Red. masses --      1.0904                 1.0920                 3.5845
 Frc consts  --      0.0450                 0.0452                 0.2447
 IR Inten    --      2.6558                 2.4460                 0.0019

                     16                     17                     18
                      A                      A                      A
 Frequencies --    340.5100               385.9285               405.8671
 Red. masses --      3.5958                 1.5028                 6.0380
 Frc consts  --      0.2456                 0.1319                 0.5860
 IR Inten    --      0.0018                36.0352                 0.0001

                     19                     20                     21
                      A                      A                      A
 Frequencies --    417.4598               421.6401               421.8320
 Red. masses --      2.0450                 4.0206                 4.0357
 Frc consts  --      0.2100                 0.4211                 0.4231
 IR Inten    --      2.0795                 4.7639                 4.5418

                     22                     23                     24
                      A                      A                      A
 Frequencies --    468.0713               515.6656               516.1142
 Red. masses --      1.1765                 1.1361                 1.1366
 Frc consts  --      0.1519                 0.1780                 0.1784
 IR Inten    --      0.0250                 2.2211                 3.9715

                     25                     26                     27
                      A                      A                      A
 Frequencies --    521.1984               521.8971               527.5425
 Red. masses --      1.2464                 1.2422                 1.1443
 Frc consts  --      0.1995                 0.1993                 0.1876
 IR Inten    --    501.5072               493.9792               148.6931

                     28                     29                     30
                      A                      A                      A
 Frequencies --    605.7542               606.4087               635.8479
 Red. masses --      1.1323                 1.1326                 1.2650
 Frc consts  --      0.2448                 0.2454                 0.3013
 IR Inten    --      0.0090                 0.0832               245.0156

                     31                     32                     33
                      A                      A                      A
 Frequencies --    636.2171               644.3684               666.7188
 Red. masses --      1.2637                 1.1515                 1.2792
 Frc consts  --      0.3014                 0.2817                 0.3350
 IR Inten    --    245.2405                 0.3823               281.1106

                     34                     35                     36
                      A                      A                      A
 Frequencies --   1620.1715              1620.4304              1622.9853
 Red. masses --      1.0896                 1.0896                 1.0883
 Frc consts  --      1.6852                 1.6857                 1.6891
 IR Inten    --    242.6133               241.9597                 0.2456

                     37                     38                     39
                      A                      A                      A
 Frequencies --   1623.2554              1626.4228              1638.4603
 Red. masses --      1.0884                 1.0898                 1.0796
 Frc consts  --      1.6896                 1.6986                 1.7076
 IR Inten    --      0.8132               201.3533                 0.0170

                     40                     41                     42
                      A                      A                      A
 Frequencies --   3546.9768              3547.4928              3551.3942
 Red. masses --      1.0435                 1.0435                 1.0440
 Frc consts  --      7.7353                 7.7375                 7.7582
 IR Inten    --      6.7518                 9.2470               666.1611

                     43                     44                     45
                      A                      A                      A
 Frequencies --   3552.1869              3552.3669              3573.7657
 Red. masses --      1.0440                 1.0440                 1.0460
 Frc consts  --      7.7615                 7.7623                 7.8711
 IR Inten    --    712.2147               564.3309                 0.4020

                     46                     47                     48
                      A                      A                      A
 Frequencies --   3621.9145              3622.6810              3622.8869
 Red. masses --      1.0837                 1.0838                 1.0838
 Frc consts  --      8.3763                 8.3803                 8.3811
 IR Inten    --     99.4320               133.0453               184.7719

                     49                     50                     51
                      A                      A                      A
 Frequencies --   3623.4473              3625.0510              3626.1483
 Red. masses --      1.0838                 1.0837                 1.0837
 Frc consts  --      8.3838                 8.3906                 8.3956
 IR Inten    --    215.0011                87.7989               848.6011

 - Thermochemistry -
 -------------------
 Temperature   298.150 Kelvin.  Pressure   1.00000 Atm.
 Atom     1 has atomic number 22 and mass  47.94795

 Molecular mass:   156.01133 amu.
 Principal axes and moments of inertia in atomic units:
                           1         2         3
     Eigenvalues --  1207.912481208.077391253.29328
           X            0.99990   0.01444  -0.00005
           Y           -0.01444   0.99990  -0.00011
           Z            0.00005   0.00011   1.00000
 This molecule is an asymmetric top.
 Rotational symmetry number  1.
 Warning -- assumption of classical behavior for rotation
           may cause significant error
 Rotational temperatures (Kelvin)      0.07171     0.07170     0.06911
 Rotational constants (GHZ):           1.49410     1.49390     1.44000
 Zero-point vibrational energy     388862.9 (Joules/Mol)
                                   92.94047 (Kcal/Mol)
 Warning -- explicit consideration of  29 degrees of freedom as
           vibrations may cause significant error
 Vibrational temperatures:    143.00   158.20   161.31   225.98   226.60
          (Kelvin)            227.51   244.47   244.75   244.98   355.91
                              369.10   369.92   380.99   381.43   489.71
                              489.92   555.27   583.95   600.63   606.65
                              606.92   673.45   741.93   742.57   749.89
                              750.89   759.02   871.55   872.49   914.84
                              915.37   927.10   959.26  2331.07  2331.44
                             2335.11  2335.50  2340.06  2357.38  5103.31
                             5104.05  5109.66  5110.80  5111.06  5141.85
                             5211.13  5212.23  5212.53  5213.33  5215.64
                             5217.22

 Zero-point correction=                           0.148110 (Hartree/Particle)
 Thermal correction to Energy=                    0.163614
 Thermal correction to Enthalpy=                  0.164558
 Thermal correction to Gibbs Free Energy=         0.108462
 Sum of electronic and zero-point Energies=          -1306.253760
 Sum of electronic and thermal Energies=             -1306.238256
 Sum of electronic and thermal Enthalpies=           -1306.237312
 Sum of electronic and thermal Free Energies=        -1306.293408

                     E (Thermal)             CV                S
                      KCal/Mol        Cal/Mol-Kelvin    Cal/Mol-Kelvin
 Total                  102.669             55.698            118.065
 Electronic               0.000              0.000              1.377
 Translational            0.889              2.981             41.044
 Rotational               0.889              2.981             28.993
 Vibrational            100.892             49.737             46.650
 Vibration     1          0.604              1.950              3.466
 Vibration     2          0.606              1.941              3.270
 Vibration     3          0.607              1.939              3.232
 Vibration     4          0.621              1.895              2.585
 Vibration     5          0.621              1.894              2.580
 Vibration     6          0.621              1.894              2.572
 Vibration     7          0.625              1.880              2.436
 Vibration     8          0.625              1.879              2.434
 Vibration     9          0.625              1.879              2.433
 Vibration    10          0.661              1.767              1.749
 Vibration    11          0.666              1.752              1.685
 Vibration    12          0.667              1.751              1.681
 Vibration    13          0.671              1.738              1.630
 Vibration    14          0.671              1.737              1.628
 Vibration    15          0.720              1.595              1.210
 Vibration    16          0.720              1.595              1.210
 Vibration    17          0.755              1.500              1.016
 Vibration    18          0.771              1.457              0.941
 Vibration    19          0.780              1.432              0.901
 Vibration    20          0.784              1.423              0.886
 Vibration    21          0.784              1.423              0.886
 Vibration    22          0.825              1.321              0.743
 Vibration    23          0.871              1.215              0.620
 Vibration    24          0.871              1.214              0.619
 Vibration    25          0.876              1.203              0.607
 Vibration    26          0.877              1.202              0.606
 Vibration    27          0.882              1.189              0.593
 Vibration    28          0.964              1.020              0.440
 Vibration    29          0.965              1.018              0.439

 Normal termination of Gaussian 16 at Thu May 30 11:21:12 2024.
 Gaussian 16:  ES64L-G16RevC.02  7-Dec-2021

 ----------------------------------------------------------------------
 #p PBEPBE empiricaldispersion=gd3 scf=(maxcycles=500,xqc,maxconvention
 al=50) scrf=(cpcm,solvent=water) geom=allcheck guess=read chkbasis
 ----------------------------------------------------------------------

 Structure from the checkpoint file:  "Ti_3_PBE.chk_solvated"
 -----
 Title
 -----
 Charge =  3 Multiplicity = 2

                         Standard orientation:
 ---------------------------------------------------------------------
 Center     Atomic      Atomic             Coordinates (Angstroms)
 Number     Number       Type             X           Y           Z
 ---------------------------------------------------------------------
      1         22           0        0.000074    0.000219    0.000288
      2          8           0       -0.715737    1.573960    1.174317
      3          1           0       -1.099443    1.524547    2.078830
      4          8           0       -1.720581    0.170583   -1.174282
      5          1           0       -1.869675   -0.185531   -2.079244
      6          8           0        1.008500    1.410284   -1.167596
      7          1           0        1.797835    1.932708   -0.897435
      8          8           0        0.715782   -1.573971   -1.173819
      9          1           0        0.772046   -2.519610   -0.907035
     10          8           0        1.721930   -0.173111    1.172198
     11          1           0        1.874591    0.178981    2.078129
     12          8           0       -1.010106   -1.408163    1.168780
     13          1           0       -1.801174   -1.927950    0.899371
     14          1           0       -0.778135   -1.718349    2.073250
     15          1           0       -2.568213    0.593842   -0.907432
     16          1           0       -0.772999    2.519820    0.907594
     17          1           0        2.568917   -0.595048    0.900776
     18          1           0        0.776012    1.720161   -2.071886
     19          1           0        1.100291   -1.525049   -2.078031
 ---------------------------------------------------------------------

 SCF Done:  E(UPBE-PBE) =  -1307.03532365     A.U. after   11 cycles

 The electronic state is 2-A.
 Alpha  occ. eigenvalues -- -177.84396 -19.63405 -18.88747 -18.88744 -18.88741
 Alpha  occ. eigenvalues --  -18.88741 -18.88738 -18.88736 -16.42386 -16.42384
 Alpha  occ. eigenvalues --  -16.41251  -2.36572  -1.52298  -1.52297  -1.50903
 Alpha  occ. eigenvalues --   -1.03169  -1.02440  -1.02435  -1.02384  -1.02379
 Alpha  occ. eigenvalues --   -1.02272  -0.57929  -0.57274  -0.57133  -0.57129
 Alpha  occ. eigenvalues --   -0.57059  -0.57054  -0.51691  -0.49935  -0.49929
 Alpha  occ. eigenvalues --   -0.47539  -0.47535  -0.47175  -0.38563  -0.38556
 Alpha  occ. eigenvalues --   -0.37040  -0.37033  -0.36868  -0.36287  -0.23270
 Alpha virt. eigenvalues --   -0.21056  -0.21054  -0.13977  -0.13971  -0.08004
 Alpha virt. eigenvalues --   -0.03987  -0.03941  -0.03936   0.00769   0.00775
 Alpha virt. eigenvalues --    0.02370   0.04324   0.04482   0.05376   0.05376

  Beta  occ. eigenvalues -- -177.84395 -19.62414 -18.88762 -18.88760 -18.88756
  Beta  occ. eigenvalues --  -18.88756 -18.88753 -18.88751 -16.41871 -16.41866
  Beta  occ. eigenvalues --  -16.39987  -2.33333  -1.50082  -1.50073  -1.45650
  Beta  occ. eigenvalues --   -1.03164  -1.02447  -1.02443  -1.02384  -1.02379
  Beta  occ. eigenvalues --   -1.02251  -0.57833  -0.57237  -0.57114  -0.57110
  Beta  occ. eigenvalues --   -0.57032  -0.57027  -0.51499  -0.49761  -0.49756
  Beta  occ. eigenvalues --   -0.47515  -0.47510  -0.47087  -0.38457  -0.38451
  Beta  occ. eigenvalues --   -0.37061  -0.37054  -0.36879  -0.36130
  Beta virt. eigenvalues --   -0.19167  -0.19166  -0.15854  -0.12587  -0.12582
  Beta virt. eigenvalues --   -0.07876  -0.03904  -0.03898  -0.03894   0.00871
  Beta virt. eigenvalues --    0.00877   0.02424   0.04410   0.04737   0.05401

 Mulliken charges and spin densities:
               1          2
     1  Ti   1.463185   1.060813
     2  O   -0.618654  -0.013332
     3  H    0.440776   0.001386
     4  O   -0.619228  -0.013324
     5  H    0.440789   0.001382
     6  O   -0.618937  -0.013348
     7  H    0.434442   0.001810
     8  O   -0.619530  -0.013300
     9  H    0.434448   0.001811
    10  O   -0.618849  -0.013388
    11  H    0.440847   0.001395
    12  O   -0.619231  -0.013337
    13  H    0.434415   0.001813
    14  H    0.440774   0.001382
    15  H    0.434438   0.001822
    16  H    0.434442   0.001818
    17  H    0.434308   0.001829
    18  H    0.440706   0.001387
    19  H    0.440861   0.001382
 Sum of Mulliken charges =   3.00000   1.00000

 Dipole moment (field-independent basis, Debye):
    X=              0.0019    Y=              0.0020    Z=             -0.0012  Tot=              0.0029
 Quadrupole moment (field-independent basis, Debye-Ang):
   XX=             -7.5559   YY=             -7.5817   ZZ=             -5.3856
   XY=              0.0006   XZ=             -0.0057   YZ=             -0.0044

 Normal termination of Gaussian 16 at Thu May 30 11:21:55 2024.
