 Gaussian 16, Revision C.02,

 ----------------------------------------------------------------------
 #p PBEPBE empiricaldispersion=gd3 6-31+G(2df,p) opt=(cartesian,calcall
 ,maxcycles=500) freq scf=(maxcycles=500,xqc,maxconventional=50)
 ----------------------------------------------------------------------

 -----
 Title
 -----
 Symbolic Z-matrix:
 Charge =  2 Multiplicity = 4

 SCF Done:  E(UPBE-PBE) =  -1401.18932875     A.U. after   18 cycles
 SCF Done:  E(UPBE-PBE) =  -1401.22208255     A.U. after   15 cycles
 SCF Done:  E(UPBE-PBE) =  -1401.27507064     A.U. after   16 cycles
 SCF Done:  E(UPBE-PBE) =  -1401.31565665     A.U. after   17 cycles
 SCF Done:  E(UPBE-PBE) =  -1401.34606349     A.U. after   14 cycles
 SCF Done:  E(UPBE-PBE) =  -1401.37322058     A.U. after   13 cycles
 SCF Done:  E(UPBE-PBE) =  -1401.38936013     A.U. after   13 cycles
 SCF Done:  E(UPBE-PBE) =  -1401.40661785     A.U. after   13 cycles
 SCF Done:  E(UPBE-PBE) =  -1401.42218164     A.U. after   13 cycles
 SCF Done:  E(UPBE-PBE) =  -1401.41807634     A.U. after   12 cycles
 SCF Done:  E(UPBE-PBE) =  -1401.44597404     A.U. after   11 cycles
 SCF Done:  E(UPBE-PBE) =  -1401.44605430     A.U. after   10 cycles
 SCF Done:  E(UPBE-PBE) =  -1401.44611034     A.U. after   11 cycles
 SCF Done:  E(UPBE-PBE) =  -1401.44612255     A.U. after   10 cycles
 SCF Done:  E(UPBE-PBE) =  -1401.44613253     A.U. after    9 cycles
 SCF Done:  E(UPBE-PBE) =  -1401.44613476     A.U. after    9 cycles
 SCF Done:  E(UPBE-PBE) =  -1401.44613404     A.U. after    8 cycles
 SCF Done:  E(UPBE-PBE) =  -1401.44613441     A.U. after    6 cycles
 Optimization completed.
    -- Stationary point found.
 Normal termination of Gaussian 16 at Thu May 30 11:10:33 2024.

 ----------------------------------------------------------------------
 #P Geom=AllCheck Guess=TCheck SCRF=Check GenChk UPBEPBE/6-31+G(2df,p)
 Freq
 ----------------------------------------------------------------------

 Structure from the checkpoint file:  "V_2_PBE.chk"
 -----
 Title
 -----
 Charge =  2 Multiplicity = 4

 SCF Done:  E(UPBE-PBE) =  -1401.44613441     A.U. after    1 cycles

  Exact polarizability:      62.126      -0.005      62.117      -0.002      -0.004      62.103
 Approx polarizability:      87.323       0.000      87.330      -0.001       0.001      87.336

                      1                      2                      3
                      A                      A                      A
 Frequencies --     66.2169                67.7581                68.3693
 Red. masses --      5.3330                 5.3301                 5.3352
 Frc consts  --      0.0138                 0.0144                 0.0147
 IR Inten    --      0.0000                 0.0000                 0.0000

                      4                      5                      6
                      A                      A                      A
 Frequencies --     94.0323                95.1067                95.8165
 Red. masses --      8.5866                 8.4099                 8.4515
 Frc consts  --      0.0447                 0.0448                 0.0457
 IR Inten    --     21.0534                20.7238                20.5127

                      7                      8                      9
                      A                      A                      A
 Frequencies --    135.1945               135.3553               135.5262
 Red. masses --      3.8905                 3.8763                 3.8432
 Frc consts  --      0.0419                 0.0418                 0.0416
 IR Inten    --      0.8266                 0.9111                 0.7024

                     10                     11                     12
                      A                      A                      A
 Frequencies --    214.0062               214.9380               244.9735
 Red. masses --      1.0079                 1.0078                 1.0809
 Frc consts  --      0.0272                 0.0274                 0.0382
 IR Inten    --      0.0012                 0.0037                 0.0000

                     13                     14                     15
                      A                      A                      A
 Frequencies --    245.5926               245.9944               302.3961
 Red. masses --      1.0801                 1.0809                 5.8228
 Frc consts  --      0.0384                 0.0385                 0.3137
 IR Inten    --      0.0000                 0.0002                 0.0000

                     16                     17                     18
                      A                      A                      A
 Frequencies --    302.6508               306.2528               306.3882
 Red. masses --      5.8229                 1.0801                 1.0799
 Frc consts  --      0.3142                 0.0597                 0.0597
 IR Inten    --      0.0000               391.7349               391.3485

                     19                     20                     21
                      A                      A                      A
 Frequencies --    306.8681               326.3232               327.2418
 Red. masses --      1.0802                 1.0406                 1.0398
 Frc consts  --      0.0599                 0.0653                 0.0656
 IR Inten    --    391.2919                 0.0002                 0.0000

                     22                     23                     24
                      A                      A                      A
 Frequencies --    327.9298               337.8924               369.0470
 Red. masses --      1.0395                 5.9838                 5.6485
 Frc consts  --      0.0659                 0.4025                 0.4533
 IR Inten    --      0.0002                 0.0000                23.0050

                     25                     26                     27
                      A                      A                      A
 Frequencies --    369.1154               369.4137               398.8327
 Red. masses --      5.6833                 5.6772                 1.0079
 Frc consts  --      0.4562                 0.4565                 0.0945
 IR Inten    --     22.2716                22.6376                 0.0439

                     28                     29                     30
                      A                      A                      A
 Frequencies --    531.4588               531.5800               532.0312
 Red. masses --      1.1537                 1.1535                 1.1535
 Frc consts  --      0.1920                 0.1921                 0.1924
 IR Inten    --      0.0000                 0.0000                 0.0000

                     31                     32                     33
                      A                      A                      A
 Frequencies --    572.1776               572.2756               572.6098
 Red. masses --      1.2931                 1.2929                 1.2921
 Frc consts  --      0.2494                 0.2495                 0.2496
 IR Inten    --    172.2408               171.9569               172.2552

                     34                     35                     36
                      A                      A                      A
 Frequencies --   1610.5790              1610.6963              1610.7465
 Red. masses --      1.0912                 1.0912                 1.0912
 Frc consts  --      1.6678                 1.6680                 1.6681
 IR Inten    --    189.8316               189.6629               189.4991

                     37                     38                     39
                      A                      A                      A
 Frequencies --   1613.0254              1613.1403              1620.0798
 Red. masses --      1.0901                 1.0901                 1.0838
 Frc consts  --      1.6711                 1.6713                 1.6760
 IR Inten    --      0.0000                 0.0000                 0.0000

                     40                     41                     42
                      A                      A                      A
 Frequencies --   3666.6407              3666.7152              3666.7277
 Red. masses --      1.0439                 1.0439                 1.0439
 Frc consts  --      8.2692                 8.2696                 8.2696
 IR Inten    --    206.1124               205.9591               206.0232

                     43                     44                     45
                      A                      A                      A
 Frequencies --   3667.2155              3667.2666              3670.9379
 Red. masses --      1.0439                 1.0439                 1.0447
 Frc consts  --      8.2717                 8.2719                 8.2943
 IR Inten    --      0.0024                 0.0010                 0.0000

                     46                     47                     48
                      A                      A                      A
 Frequencies --   3751.3932              3751.4761              3751.4826
 Red. masses --      1.0842                 1.0842                 1.0842
 Frc consts  --      8.9900                 8.9904                 8.9904
 IR Inten    --      0.0021                 0.0005                 0.0006

                     49                     50                     51
                      A                      A                      A
 Frequencies --   3752.4239              3752.5096              3752.5098
 Red. masses --      1.0840                 1.0840                 1.0840
 Frc consts  --      8.9929                 8.9933                 8.9933
 IR Inten    --    344.0371               344.3729               343.9547

 - Thermochemistry -
 -------------------
 Temperature   298.150 Kelvin.  Pressure   1.00000 Atm.
 Atom     1 has atomic number 23 and mass  50.94396

 Molecular mass:   159.00735 amu.
 Principal axes and moments of inertia in atomic units:
                           1         2         3
     Eigenvalues --  1280.840311282.153491283.60383
           X            1.00000   0.00219  -0.00095
           Y           -0.00219   1.00000   0.00180
           Z            0.00096  -0.00180   1.00000
 This molecule is an asymmetric top.
 Rotational symmetry number  1.
 Warning -- assumption of classical behavior for rotation
           may cause significant error
 Rotational temperatures (Kelvin)      0.06762     0.06755     0.06748
 Rotational constants (GHZ):           1.40903     1.40759     1.40600
 Zero-point vibrational energy     382308.1 (Joules/Mol)
                                   91.37384 (Kcal/Mol)
 Warning -- explicit consideration of  33 degrees of freedom as
           vibrations may cause significant error
 Vibrational temperatures:     95.27    97.49    98.37   135.29   136.84
          (Kelvin)            137.86   194.51   194.75   194.99   307.91
                              309.25   352.46   353.35   353.93   435.08
                              435.45   440.63   440.82   441.51   469.51
                              470.83   471.82   486.15   530.98   531.07
                              531.50   573.83   764.65   764.82   765.47
                              823.24   823.38   823.86  2317.26  2317.43
                             2317.50  2320.78  2320.95  2330.93  5275.48
                             5275.59  5275.60  5276.31  5276.38  5281.66
                             5397.42  5397.54  5397.55  5398.90  5399.02
                             5399.02

 Zero-point correction=                           0.145613 (Hartree/Particle)
 Thermal correction to Energy=                    0.163728
 Thermal correction to Enthalpy=                  0.164672
 Thermal correction to Gibbs Free Energy=         0.101128
 Sum of electronic and zero-point Energies=          -1401.300521
 Sum of electronic and thermal Energies=             -1401.282406
 Sum of electronic and thermal Enthalpies=           -1401.281462
 Sum of electronic and thermal Free Energies=        -1401.345007

                     E (Thermal)             CV                S
                      KCal/Mol        Cal/Mol-Kelvin    Cal/Mol-Kelvin
 Total                  102.741             60.410            133.741
 Electronic               0.000              0.000              2.755
 Translational            0.889              2.981             41.100
 Rotational               0.889              2.981             29.135
 Vibrational            100.964             54.449             60.751
 Vibration     1          0.598              1.970              4.263
 Vibration     2          0.598              1.970              4.217
 Vibration     3          0.598              1.969              4.200
 Vibration     4          0.603              1.953              3.574
 Vibration     5          0.603              1.953              3.552
 Vibration     6          0.603              1.952              3.538
 Vibration     7          0.613              1.918              2.871
 Vibration     8          0.613              1.918              2.869
 Vibration     9          0.613              1.918              2.866
 Vibration    10          0.644              1.820              2.009
 Vibration    11          0.645              1.818              2.001
 Vibration    12          0.660              1.771              1.766
 Vibration    13          0.660              1.770              1.762
 Vibration    14          0.660              1.769              1.759
 Vibration    15          0.694              1.669              1.404
 Vibration    16          0.694              1.669              1.402
 Vibration    17          0.697              1.662              1.382
 Vibration    18          0.697              1.662              1.382
 Vibration    19          0.697              1.661              1.379
 Vibration    20          0.710              1.623              1.278
 Vibration    21          0.711              1.621              1.274
 Vibration    22          0.711              1.620              1.270
 Vibration    23          0.718              1.600              1.222
 Vibration    24          0.741              1.536              1.084
 Vibration    25          0.741              1.536              1.083
 Vibration    26          0.742              1.535              1.082
 Vibration    27          0.765              1.473              0.967
 Vibration    28          0.886              1.180              0.584
 Vibration    29          0.887              1.180              0.584
 Vibration    30          0.887              1.179              0.583
 Vibration    31          0.928              1.091              0.500
 Vibration    32          0.928              1.091              0.500
 Vibration    33          0.929              1.090              0.499

 Normal termination of Gaussian 16 at Thu May 30 11:12:03 2024.
 Gaussian 16:  ES64L-G16RevC.02  7-Dec-2021

 ----------------------------------------------------------------------
 #p PBEPBE empiricaldispersion=gd3 scf=(maxcycles=500,xqc,maxconvention
 al=50) scrf=(cpcm,solvent=water) geom=allcheck guess=read chkbasis
 ----------------------------------------------------------------------

 Structure from the checkpoint file:  "V_2_PBE.chk_solvated"
 -----
 Title
 -----
 Charge =  2 Multiplicity = 4

                         Standard orientation:
 ---------------------------------------------------------------------
 Center     Atomic      Atomic             Coordinates (Angstroms)
 Number     Number       Type             X           Y           Z
 ---------------------------------------------------------------------
      1         23           0       -0.000010    0.000002    0.000014
      2          8           0        0.824553   -1.788125    0.849709
      3          1           0        1.597964   -2.282322    0.521237
      4          8           0       -1.286349   -1.183629   -1.242453
      5          1           0       -1.933218   -0.850580   -1.891237
      6          8           0       -1.508564    0.031992    1.523847
      7          1           0       -1.448022    0.470942    2.392132
      8          8           0       -0.824395    1.788144   -0.849824
      9          1           0       -0.497010    2.261440   -1.636636
     10          8           0        1.286250    1.183644    1.242548
     11          1           0        1.933132    0.850605    1.891324
     12          8           0        1.508522   -0.032032   -1.523852
     13          1           0        1.447818   -0.470758   -2.392239
     14          1           0        2.384408    0.393701   -1.480570
     15          1           0       -1.330819   -2.157041   -1.270054
     16          1           0        0.497579   -2.261338    1.636741
     17          1           0        1.330582    2.157059    1.270271
     18          1           0       -2.384327   -0.393999    1.480632
     19          1           0       -1.598000    2.282285   -0.521727
 ---------------------------------------------------------------------

 SCF Done:  E(UPBE-PBE) =  -1401.72114884     A.U. after    8 cycles

 The electronic state is 4-A.
 Alpha  occ. eigenvalues -- -195.63059 -21.80379 -18.83758 -18.83758 -18.83757
 Alpha  occ. eigenvalues --  -18.83757 -18.83756 -18.83756 -18.38013 -18.38012
 Alpha  occ. eigenvalues --  -18.38012  -2.49133  -1.56551  -1.56549  -1.56547
 Alpha  occ. eigenvalues --   -0.98631  -0.98045  -0.98043  -0.98040  -0.97998
 Alpha  occ. eigenvalues --   -0.97997  -0.53421  -0.53419  -0.53417  -0.53327
 Alpha  occ. eigenvalues --   -0.53326  -0.53325  -0.46049  -0.43164  -0.43164
 Alpha  occ. eigenvalues --   -0.42101  -0.42090  -0.42081  -0.32869  -0.32868
 Alpha  occ. eigenvalues --   -0.32866  -0.32355  -0.32347  -0.32342  -0.14842
 Alpha  occ. eigenvalues --   -0.14839  -0.14838
 Alpha virt. eigenvalues --   -0.06903  -0.06901  -0.06600  -0.02773  -0.02770
 Alpha virt. eigenvalues --   -0.02768   0.03037   0.03226   0.03228   0.06497
 Alpha virt. eigenvalues --    0.06502   0.06507   0.06951   0.06952   0.06953

  Beta  occ. eigenvalues -- -195.63052 -21.77210 -18.83754 -18.83753 -18.83753
  Beta  occ. eigenvalues --  -18.83753 -18.83752 -18.83752 -18.35587 -18.35586
  Beta  occ. eigenvalues --  -18.35585  -2.39477  -1.47008  -1.47004  -1.47001
  Beta  occ. eigenvalues --   -0.98556  -0.97974  -0.97972  -0.97969  -0.97948
  Beta  occ. eigenvalues --   -0.97947  -0.53347  -0.53345  -0.53344  -0.53279
  Beta  occ. eigenvalues --   -0.53278  -0.53277  -0.45514  -0.42869  -0.42868
  Beta  occ. eigenvalues --   -0.41958  -0.41949  -0.41940  -0.32492  -0.32491
  Beta  occ. eigenvalues --   -0.32489  -0.32214  -0.32207  -0.32202
  Beta virt. eigenvalues --   -0.06303  -0.04210  -0.04205  -0.04204  -0.02930
  Beta virt. eigenvalues --   -0.02928  -0.02634  -0.02630  -0.02628   0.03213
  Beta virt. eigenvalues --    0.04013   0.04015   0.06622   0.06627   0.06631

 Mulliken charges and spin densities:
               1          2
     1  V    1.229102   3.109257
     2  O   -0.695045  -0.022209
     3  H    0.411705   0.002028
     4  O   -0.695023  -0.022286
     5  H    0.411738   0.002014
     6  O   -0.694947  -0.022237
     7  H    0.411797   0.001999
     8  O   -0.695047  -0.022209
     9  H    0.411769   0.002007
    10  O   -0.695016  -0.022286
    11  H    0.411737   0.002014
    12  O   -0.694974  -0.022237
    13  H    0.411799   0.001999
    14  H    0.411680   0.002037
    15  H    0.411785   0.002018
    16  H    0.411772   0.002007
    17  H    0.411784   0.002018
    18  H    0.411676   0.002037
    19  H    0.411709   0.002029
 Sum of Mulliken charges =   2.00000   3.00000

 Dipole moment (field-independent basis, Debye):
    X=              0.0001    Y=              0.0000    Z=             -0.0001  Tot=              0.0001
 Quadrupole moment (field-independent basis, Debye-Ang):
   XX=            -16.3334   YY=            -16.3065   ZZ=            -16.3156
   XY=              0.0057   XZ=             -0.0052   YZ=              0.0022

 Normal termination of Gaussian 16 at Thu May 30 11:12:35 2024.
