 Gaussian 16, Revision C.02,

 ----------------------------------------------------------------------
 #p PBEPBE empiricaldispersion=gd3 6-31+G(2df,p) opt=(cartesian,calcall
 ,maxcycles=500) freq scf=(maxcycles=500,xqc,maxconventional=50)
 ----------------------------------------------------------------------

 -----
 Title
 -----
 Symbolic Z-matrix:
 Charge =  3 Multiplicity = 3

 SCF Done:  E(UPBE-PBE) =  -1400.64896118     A.U. after   18 cycles
 SCF Done:  E(UPBE-PBE) =  -1400.67880970     A.U. after   15 cycles
 SCF Done:  E(UPBE-PBE) =  -1400.72882798     A.U. after   15 cycles
 SCF Done:  E(UPBE-PBE) =  -1400.77447996     A.U. after   18 cycles
 SCF Done:  E(UPBE-PBE) =  -1400.80314456     A.U. after   16 cycles
 SCF Done:  E(UPBE-PBE) =  -1400.83377911     A.U. after   19 cycles
 SCF Done:  E(UPBE-PBE) =  -1400.85812457     A.U. after   16 cycles
 SCF Done:  E(UPBE-PBE) =  -1400.87196326     A.U. after   18 cycles
 SCF Done:  E(UPBE-PBE) =  -1400.87837613     A.U. after   17 cycles
 SCF Done:  E(UPBE-PBE) =  -1400.88118761     A.U. after   17 cycles
 SCF Done:  E(UPBE-PBE) =  -1400.88815895     A.U. after   12 cycles
 SCF Done:  E(UPBE-PBE) =  -1400.88815583     A.U. after   10 cycles
 SCF Done:  E(UPBE-PBE) =  -1400.88816013     A.U. after    9 cycles
 SCF Done:  E(UPBE-PBE) =  -1400.88816305     A.U. after   10 cycles
 SCF Done:  E(UPBE-PBE) =  -1400.88816034     A.U. after   10 cycles
 SCF Done:  E(UPBE-PBE) =  -1400.88816673     A.U. after    8 cycles
 SCF Done:  E(UPBE-PBE) =  -1400.88815639     A.U. after    9 cycles
 SCF Done:  E(UPBE-PBE) =  -1400.88816539     A.U. after    8 cycles
 Optimization completed.
    -- Stationary point found.
 Normal termination of Gaussian 16 at Thu May 30 10:48:26 2024.

 ----------------------------------------------------------------------
 #P Geom=AllCheck Guess=TCheck SCRF=Check GenChk UPBEPBE/6-31+G(2df,p)
 Freq
 ----------------------------------------------------------------------

 Structure from the checkpoint file:  "V_3_PBE.chk"
 -----
 Title
 -----
 Charge =  3 Multiplicity = 3

 SCF Done:  E(UPBE-PBE) =  -1400.88816539     A.U. after    1 cycles

  Exact polarizability:      66.789      -0.005      66.787      -0.017       0.000      64.551
 Approx polarizability:     105.442      -0.012     105.453      -0.048       0.001      99.172

                      1                      2                      3
                      A                      A                      A
 Frequencies --    119.1350               119.4849               145.9762
 Red. masses --      5.0292                 5.0092                 4.5132
 Frc consts  --      0.0421                 0.0421                 0.0567
 IR Inten    --      1.9903                 1.9382                 3.0606

                      4                      5                      6
                      A                      A                      A
 Frequencies --    164.6902               168.4340               169.2880
 Red. masses --      5.5590                 4.6968                 4.6868
 Frc consts  --      0.0888                 0.0785                 0.0791
 IR Inten    --      0.0002                 0.0011                 0.0009

                      7                      8                      9
                      A                      A                      A
 Frequencies --    178.7935               179.0303               186.6372
 Red. masses --      2.7740                 2.7896                 4.6523
 Frc consts  --      0.0522                 0.0527                 0.0955
 IR Inten    --      1.8697                 1.8190                 0.5578

                     10                     11                     12
                      A                      A                      A
 Frequencies --    226.9395               228.2578               268.2599
 Red. masses --      1.3407                 1.3417                 1.2311
 Frc consts  --      0.0407                 0.0412                 0.0522
 IR Inten    --      0.0011                 0.0017                13.8822

                     13                     14                     15
                      A                      A                      A
 Frequencies --    268.6966               310.0249               363.4051
 Red. masses --      1.2272                 1.0220                 2.5031
 Frc consts  --      0.0522                 0.0579                 0.1948
 IR Inten    --     13.8980                 0.0006                 0.0012

                     16                     17                     18
                      A                      A                      A
 Frequencies --    363.5123               409.9615               419.5292
 Red. masses --      2.5100                 2.1338                 6.0103
 Frc consts  --      0.1954                 0.2113                 0.6233
 IR Inten    --      0.0011                30.6274                 0.0002

                     19                     20                     21
                      A                      A                      A
 Frequencies --    432.9575               433.2018               443.8821
 Red. masses --      3.1493                 3.1416                 1.1578
 Frc consts  --      0.3478                 0.3474                 0.1344
 IR Inten    --     19.0304                19.3632                56.6460

                     22                     23                     24
                      A                      A                      A
 Frequencies --    450.3258               450.5482               477.3318
 Red. masses --      1.1366                 1.1364                 1.2735
 Frc consts  --      0.1358                 0.1359                 0.1710
 IR Inten    --      0.0473                 0.1193               328.8810

                     25                     26                     27
                      A                      A                      A
 Frequencies --    477.6527               488.9000               494.9151
 Red. masses --      1.2746                 1.1130                 1.4820
 Frc consts  --      0.1713                 0.1567                 0.2139
 IR Inten    --    330.2354                 0.1632               523.7904

                     28                     29                     30
                      A                      A                      A
 Frequencies --    606.7798               648.7552               648.9094
 Red. masses --      1.1387                 1.1529                 1.1474
 Frc consts  --      0.2470                 0.2859                 0.2847
 IR Inten    --      0.0012                 9.5489                 0.2087

                     31                     32                     33
                      A                      A                      A
 Frequencies --    649.1227               679.3363               679.5492
 Red. masses --      1.2403                 1.2964                 1.2970
 Frc consts  --      0.3079                 0.3525                 0.3529
 IR Inten    --    142.3076               207.0821               207.4734

                     34                     35                     36
                      A                      A                      A
 Frequencies --   1614.5932              1614.7269              1617.6658
 Red. masses --      1.0929                 1.0929                 1.0908
 Frc consts  --      1.6786                 1.6789                 1.6817
 IR Inten    --    206.2302               206.0763                 1.4145

                     37                     38                     39
                      A                      A                      A
 Frequencies --   1617.8277              1618.7444              1633.6611
 Red. masses --      1.0908                 1.0923                 1.0808
 Frc consts  --      1.6821                 1.6863                 1.6995
 IR Inten    --      0.0475               224.3906                 0.0025

                     40                     41                     42
                      A                      A                      A
 Frequencies --   3544.5176              3544.5600              3552.4428
 Red. masses --      1.0427                 1.0427                 1.0437
 Frc consts  --      7.7186                 7.7187                 7.7602
 IR Inten    --      0.0227                 0.1162               672.1003

                     43                     44                     45
                      A                      A                      A
 Frequencies --   3552.5105              3554.1846              3576.2558
 Red. masses --      1.0437                 1.0436                 1.0454
 Frc consts  --      7.7605                 7.7674                 7.8777
 IR Inten    --    669.7809               702.3013                 0.0042

                     46                     47                     48
                      A                      A                      A
 Frequencies --   3627.8573              3628.5815              3630.1360
 Red. masses --      1.0848                 1.0849                 1.0849
 Frc consts  --      8.4120                 8.4162                 8.4231
 IR Inten    --      0.7123               304.5138                 2.7555

                     49                     50                     51
                      A                      A                      A
 Frequencies --   3630.1914              3630.7843              3630.8303
 Red. masses --      1.0849                 1.0849                 1.0849
 Frc consts  --      8.4234                 8.4263                 8.4265
 IR Inten    --      8.5622               642.5732               634.2864

 - Thermochemistry -
 -------------------
 Temperature   298.150 Kelvin.  Pressure   1.00000 Atm.
 Atom     1 has atomic number 23 and mass  50.94396

 Molecular mass:   159.00735 amu.
 Principal axes and moments of inertia in atomic units:
                           1         2         3
     Eigenvalues --  1168.467271168.820071186.71235
           X            0.99983   0.01855  -0.00031
           Y           -0.01855   0.99983   0.00064
           Z            0.00032  -0.00064   1.00000
 This molecule is an asymmetric top.
 Rotational symmetry number  1.
 Warning -- assumption of classical behavior for rotation
           may cause significant error
 Rotational temperatures (Kelvin)      0.07413     0.07410     0.07299
 Rotational constants (GHZ):           1.54454     1.54407     1.52079
 Zero-point vibrational energy     389816.9 (Joules/Mol)
                                   93.16847 (Kcal/Mol)
 Warning -- explicit consideration of  28 degrees of freedom as
           vibrations may cause significant error
 Vibrational temperatures:    171.41   171.91   210.03   236.95   242.34
          (Kelvin)            243.57   257.24   257.58   268.53   326.52
                              328.41   385.97   386.59   446.06   522.86
                              523.01   589.84   603.61   622.93   623.28
                              638.65   647.92   648.24   686.77   687.24
                              703.42   712.07   873.02   933.41   933.64
                              933.94   977.41   977.72  2323.04  2323.23
                             2327.46  2327.69  2329.01  2350.47  5099.77
                             5099.83  5111.17  5111.27  5113.68  5145.43
                             5219.68  5220.72  5222.96  5223.04  5223.89
                             5223.96

 Zero-point correction=                           0.148473 (Hartree/Particle)
 Thermal correction to Energy=                    0.163733
 Thermal correction to Enthalpy=                  0.164677
 Thermal correction to Gibbs Free Energy=         0.109090
 Sum of electronic and zero-point Energies=          -1400.739692
 Sum of electronic and thermal Energies=             -1400.724432
 Sum of electronic and thermal Enthalpies=           -1400.723488
 Sum of electronic and thermal Free Energies=        -1400.779076

                     E (Thermal)             CV                S
                      KCal/Mol        Cal/Mol-Kelvin    Cal/Mol-Kelvin
 Total                  102.744             55.530            116.994
 Electronic               0.000              0.000              2.183
 Translational            0.889              2.981             41.100
 Rotational               0.889              2.981             28.873
 Vibrational            100.967             49.568             44.837
 Vibration     1          0.609              1.933              3.114
 Vibration     2          0.609              1.933              3.109
 Vibration     3          0.617              1.907              2.724
 Vibration     4          0.623              1.886              2.495
 Vibration     5          0.625              1.881              2.453
 Vibration     6          0.625              1.880              2.443
 Vibration     7          0.629              1.868              2.341
 Vibration     8          0.629              1.868              2.339
 Vibration     9          0.632              1.858              2.261
 Vibration    10          0.651              1.800              1.903
 Vibration    11          0.651              1.798              1.893
 Vibration    12          0.673              1.731              1.607
 Vibration    13          0.673              1.731              1.605
 Vibration    14          0.699              1.655              1.362
 Vibration    15          0.737              1.548              1.108
 Vibration    16          0.737              1.547              1.107
 Vibration    17          0.774              1.449              0.927
 Vibration    18          0.782              1.428              0.894
 Vibration    19          0.794              1.398              0.849
 Vibration    20          0.794              1.398              0.848
 Vibration    21          0.803              1.374              0.814
 Vibration    22          0.809              1.360              0.795
 Vibration    23          0.809              1.360              0.794
 Vibration    24          0.834              1.300              0.717
 Vibration    25          0.834              1.300              0.716
 Vibration    26          0.845              1.275              0.686
 Vibration    27          0.851              1.261              0.671
 Vibration    28          0.965              1.017              0.438

 Normal termination of Gaussian 16 at Thu May 30 10:49:59 2024.
 Gaussian 16:  ES64L-G16RevC.02  7-Dec-2021

 ----------------------------------------------------------------------
 #p PBEPBE empiricaldispersion=gd3 scf=(maxcycles=500,xqc,maxconvention
 al=50) scrf=(cpcm,solvent=water) geom=allcheck guess=read chkbasis
 ----------------------------------------------------------------------

 Structure from the checkpoint file:  "V_3_PBE.chk_solvated"
 -----
 Title
 -----
 Charge =  3 Multiplicity = 3

                         Standard orientation:
 ---------------------------------------------------------------------
 Center     Atomic      Atomic             Coordinates (Angstroms)
 Number     Number       Type             X           Y           Z
 ---------------------------------------------------------------------
      1         23           0        0.000479   -0.000033   -0.000001
      2          8           0        1.372303   -0.959675   -1.176959
      3          1           0        1.557429   -1.925675   -1.195216
      4          8           0        1.524111    0.706689    1.169567
      5          1           0        1.456501    1.404597    1.859506
      6          8           0        0.142666    1.674341   -1.168223
      7          1           0       -0.497959    1.962906   -1.856698
      8          8           0       -1.371666    0.959529    1.177282
      9          1           0       -1.938425    0.549128    1.868668
     10          8           0       -1.524632   -0.705788   -1.168911
     11          1           0       -1.457938   -1.400375   -1.862259
     12          8           0       -0.143812   -1.674931    1.167248
     13          1           0        0.497000   -1.967195    1.853984
     14          1           0       -0.886203   -2.320268    1.179146
     15          1           0        2.453872    0.385517    1.181380
     16          1           0        1.944742   -0.548330   -1.863094
     17          1           0       -2.455155   -0.386735   -1.175720
     18          1           0        0.883879    2.321001   -1.181699
     19          1           0       -1.560520    1.924858    1.191983
 ---------------------------------------------------------------------

 SCF Done:  E(UPBE-PBE) =  -1401.52551392     A.U. after   12 cycles

 The electronic state is 3-A.
 Alpha  occ. eigenvalues -- -195.81559 -21.99542 -18.89163 -18.89160 -18.89155
 Alpha  occ. eigenvalues --  -18.89155 -18.89154 -18.89151 -18.57784 -18.56893
 Alpha  occ. eigenvalues --  -18.56887  -2.64547  -1.72154  -1.71265  -1.71259
 Alpha  occ. eigenvalues --   -1.03670  -1.02760  -1.02757  -1.02743  -1.02739
 Alpha  occ. eigenvalues --   -1.02737  -0.58170  -0.58164  -0.57753  -0.57752
 Alpha  occ. eigenvalues --   -0.57504  -0.57282  -0.52821  -0.50681  -0.50676
 Alpha  occ. eigenvalues --   -0.48000  -0.47992  -0.47987  -0.39719  -0.37994
 Alpha  occ. eigenvalues --   -0.37982  -0.37565  -0.37221  -0.37218  -0.27212
 Alpha  occ. eigenvalues --   -0.27207
 Alpha virt. eigenvalues --   -0.24943  -0.17781  -0.17774  -0.08115  -0.03978
 Alpha virt. eigenvalues --   -0.03973  -0.03882   0.01138   0.01143   0.02594
 Alpha virt. eigenvalues --    0.04221   0.04225   0.04845   0.04847   0.05525

  Beta  occ. eigenvalues -- -195.81551 -21.97184 -18.89167 -18.89164 -18.89159
  Beta  occ. eigenvalues --  -18.89158 -18.89158 -18.89154 -18.56402 -18.54876
  Beta  occ. eigenvalues --  -18.54866  -2.57588  -1.66980  -1.63567  -1.63546
  Beta  occ. eigenvalues --   -1.03620  -1.02717  -1.02714  -1.02710  -1.02707
  Beta  occ. eigenvalues --   -1.02703  -0.58046  -0.58041  -0.57706  -0.57704
  Beta  occ. eigenvalues --   -0.57474  -0.57239  -0.52453  -0.50263  -0.50259
  Beta  occ. eigenvalues --   -0.47953  -0.47902  -0.47897  -0.39282  -0.37496
  Beta  occ. eigenvalues --   -0.37333  -0.37323  -0.37132  -0.37129
  Beta virt. eigenvalues --   -0.21234  -0.17919  -0.17913  -0.14688  -0.14683
  Beta virt. eigenvalues --   -0.07912  -0.03878  -0.03873  -0.03807   0.01293
  Beta virt. eigenvalues --    0.01298   0.02688   0.04342   0.04345   0.05070

 Mulliken charges and spin densities:
               1          2
     1  V    1.577549   2.075210
     2  O   -0.645880  -0.016045
     3  H    0.440681   0.002179
     4  O   -0.646321  -0.015913
     5  H    0.442722   0.001202
     6  O   -0.646424  -0.015979
     7  H    0.442811   0.001198
     8  O   -0.646713  -0.015801
     9  H    0.442777   0.001182
    10  O   -0.646987  -0.015703
    11  H    0.442820   0.001179
    12  O   -0.646221  -0.016005
    13  H    0.442827   0.001210
    14  H    0.440639   0.002181
    15  H    0.440767   0.002177
    16  H    0.442693   0.001217
    17  H    0.440775   0.002160
    18  H    0.440721   0.002186
    19  H    0.440765   0.002165
 Sum of Mulliken charges =   3.00000   2.00000

 Dipole moment (field-independent basis, Debye):
    X=              0.0057    Y=             -0.0020    Z=             -0.0001  Tot=              0.0060
 Quadrupole moment (field-independent basis, Debye-Ang):
   XX=             -5.9288   YY=             -5.9387   ZZ=             -9.7198
   XY=             -0.0036   XZ=             -0.0077   YZ=              0.0069

 Normal termination of Gaussian 16 at Thu May 30 10:50:46 2024.
