 Gaussian 16, Revision C.02,

 ----------------------------------------------------------------------
 #p TPSSH 6-31+G(2df,p) opt=(cartesian,calcall,maxcycles=500,loose) fre
 q scf=(maxcycles=500,xqc,maxconventional=50) IOp(3/174=1000000) IOp(3/
 175=1219000) IOp(3/176=1223000)
 ----------------------------------------------------------------------

 -----
 Title
 -----
 Symbolic Z-matrix:
 Charge =  3 Multiplicity = 6

 SCF Done:  E(UTPSSh) =  -1720.93300840     A.U. after   17 cycles
 SCF Done:  E(UTPSSh) =  -1720.96278561     A.U. after   12 cycles
 SCF Done:  E(UTPSSh) =  -1721.01321866     A.U. after   14 cycles
 SCF Done:  E(UTPSSh) =  -1721.06851508     A.U. after   15 cycles
 SCF Done:  E(UTPSSh) =  -1721.08283647     A.U. after   15 cycles
 SCF Done:  E(UTPSSh) =  -1721.11937326     A.U. after   14 cycles
 SCF Done:  E(UTPSSh) =  -1721.14169718     A.U. after   14 cycles
 SCF Done:  E(UTPSSh) =  -1721.15057467     A.U. after   16 cycles
 SCF Done:  E(UTPSSh) =  -1721.15849252     A.U. after   14 cycles
 SCF Done:  E(UTPSSh) =  -1721.15175308     A.U. after   14 cycles
 SCF Done:  E(UTPSSh) =  -1721.17391751     A.U. after   13 cycles
 SCF Done:  E(UTPSSh) =  -1721.17441887     A.U. after   13 cycles
 SCF Done:  E(UTPSSh) =  -1721.17456579     A.U. after   12 cycles
 SCF Done:  E(UTPSSh) =  -1721.17460610     A.U. after   11 cycles
 SCF Done:  E(UTPSSh) =  -1721.17461677     A.U. after   11 cycles
 SCF Done:  E(UTPSSh) =  -1721.17461337     A.U. after   10 cycles
 SCF Done:  E(UTPSSh) =  -1721.17462036     A.U. after   10 cycles
 SCF Done:  E(UTPSSh) =  -1721.17462262     A.U. after   10 cycles
 Optimization completed.
    -- Stationary point found.
 Normal termination of Gaussian 16 at Wed Mar  5 22:01:45 2025.

 ----------------------------------------------------------------------
 #P Geom=AllCheck Guess=TCheck SCRF=Check Test GenChk UTPSSh/6-31+G(2df
 ,p) Freq
 ----------------------------------------------------------------------

 Structure from the checkpoint file:  "Fe_2_TPSSh.chk"
 -----
 Title
 -----
 Charge =  3 Multiplicity = 6

 SCF Done:  E(UTPSSh) =  -1721.17462262     A.U. after    1 cycles

  Exact polarizability:      67.391      -0.004      67.384       0.005      -0.003      67.381
 Approx polarizability:      92.474      -0.000      92.462       0.003      -0.000      92.452

                      1                      2                      3
                      A                      A                      A
 Frequencies --    111.1997               111.4539               112.8147
 Red. masses --      4.4331                 4.4247                 4.4345
 Frc consts  --      0.0323                 0.0324                 0.0333
 IR Inten    --      0.7678                 0.7562                 0.7574

                      4                      5                      6
                      A                      A                      A
 Frequencies --    164.4179               164.9702               165.1230
 Red. masses --      4.9457                 4.9426                 4.9466
 Frc consts  --      0.0788                 0.0793                 0.0795
 IR Inten    --      0.0000                 0.0000                 0.0000

                      7                      8                      9
                      A                      A                      A
 Frequencies --    171.5025               171.5706               171.8666
 Red. masses --      5.3870                 5.3962                 5.3869
 Frc consts  --      0.0934                 0.0936                 0.0937
 IR Inten    --      0.0119                 0.0135                 0.0096

                     10                     11                     12
                      A                      A                      A
 Frequencies --    266.1428               266.7898               334.3174
 Red. masses --      1.0078                 1.0078                 5.7845
 Frc consts  --      0.0421                 0.0423                 0.3809
 IR Inten    --      0.0004                 0.0009                 0.0000

                     13                     14                     15
                      A                      A                      A
 Frequencies --    334.4866               342.1013               342.3735
 Red. masses --      5.7864                 1.0245                 1.0247
 Frc consts  --      0.3814                 0.0706                 0.0708
 IR Inten    --      0.0000                 0.0000                 0.0000

                     16                     17                     18
                      A                      A                      A
 Frequencies --    342.5528               407.7484               407.7817
 Red. masses --      1.0245                 4.3378                 4.3265
 Frc consts  --      0.0708                 0.4249                 0.4239
 IR Inten    --      0.0000                 6.2608                 6.3936

                     19                     20                     21
                      A                      A                      A
 Frequencies --    407.9933               420.7550               477.7359
 Red. masses --      4.3366                 6.0348                 1.1207
 Frc consts  --      0.4253                 0.6295                 0.1507
 IR Inten    --      6.2953                 0.0000                 0.0000

                     22                     23                     24
                      A                      A                      A
 Frequencies --    477.8688               478.1365               478.2972
 Red. masses --      1.1207                 1.1206                 1.0080
 Frc consts  --      0.1508                 0.1509                 0.1359
 IR Inten    --      0.0029                 0.0088                 0.1362

                     25                     26                     27
                      A                      A                      A
 Frequencies --    489.0954               489.2797               489.3197
 Red. masses --      1.2541                 1.2542                 1.2542
 Frc consts  --      0.1768                 0.1769                 0.1769
 IR Inten    --    413.7385               414.8954               414.0048

                     28                     29                     30
                      A                      A                      A
 Frequencies --    634.0807               634.3066               634.4398
 Red. masses --      1.1526                 1.1524                 1.1525
 Frc consts  --      0.2730                 0.2732                 0.2733
 IR Inten    --      0.0009                 0.0028                 0.0001

                     31                     32                     33
                      A                      A                      A
 Frequencies --    646.7832               646.8655               646.9953
 Red. masses --      1.2255                 1.2253                 1.2256
 Frc consts  --      0.3020                 0.3021                 0.3023
 IR Inten    --    220.1699               219.7846               219.7637

                     34                     35                     36
                      A                      A                      A
 Frequencies --   1651.4288              1651.4383              1651.4898
 Red. masses --      1.0917                 1.0918                 1.0918
 Frc consts  --      1.7543                 1.7543                 1.7544
 IR Inten    --    222.2955               222.1956               222.1748

                     37                     38                     39
                      A                      A                      A
 Frequencies --   1654.0913              1654.1302              1663.9699
 Red. masses --      1.0918                 1.0918                 1.0815
 Frc consts  --      1.7600                 1.7600                 1.7644
 IR Inten    --      0.0002                 0.0009                 0.0000

                     40                     41                     42
                      A                      A                      A
 Frequencies --   3609.0186              3609.1347              3609.8618
 Red. masses --      1.0435                 1.0435                 1.0436
 Frc consts  --      8.0076                 8.0082                 8.0124
 IR Inten    --      3.7289                 0.2286               768.4261

                     43                     44                     45
                      A                      A                      A
 Frequencies --   3609.9801              3610.0712              3635.5052
 Red. masses --      1.0436                 1.0436                 1.0453
 Frc consts  --      8.0130                 8.0134                 8.1398
 IR Inten    --    772.1642               772.1662                 0.0019

                     46                     47                     48
                      A                      A                      A
 Frequencies --   3694.5006              3694.5958              3694.6726
 Red. masses --      1.0854                 1.0854                 1.0854
 Frc consts  --      8.7284                 8.7288                 8.7292
 IR Inten    --      6.3881                 0.0011                 0.0305

                     49                     50                     51
                      A                      A                      A
 Frequencies --   3695.1624              3695.2423              3695.3192
 Red. masses --      1.0854                 1.0854                 1.0854
 Frc consts  --      8.7320                 8.7323                 8.7327
 IR Inten    --    542.0894               548.5474               548.5424

 - Thermochemistry -
 -------------------
 Temperature   298.150 Kelvin.  Pressure   1.00000 Atm.
 Atom     1 has atomic number 26 and mass  55.93494

 Molecular mass:   163.99833 amu.
 Principal axes and moments of inertia in atomic units:
                           1         2         3
     Eigenvalues --  1167.128651167.388561167.52651
           X            1.00000   0.00211   0.00050
           Y           -0.00211   0.99998  -0.00640
           Z           -0.00051   0.00640   0.99998
 This molecule is an asymmetric top.
 Rotational symmetry number  1.
 Warning -- assumption of classical behavior for rotation
           may cause significant error
 Rotational temperatures (Kelvin)      0.07421     0.07419     0.07419
 Rotational constants (GHZ):           1.54631     1.54596     1.54578
 Zero-point vibrational energy     396088.2 (Joules/Mol)
                                   94.66736 (Kcal/Mol)
 Warning -- explicit consideration of  27 degrees of freedom as
           vibrations may cause significant error
 Vibrational temperatures:    159.99   160.36   162.32   236.56   237.36
          (Kelvin)            237.58   246.75   246.85   247.28   382.92
                              383.85   481.01   481.25   492.21   492.60
                              492.86   586.66   586.71   587.01   605.37
                              687.36   687.55   687.93   688.16   703.70
                              703.96   704.02   912.30   912.63   912.82
                              930.58   930.70   930.88  2376.04  2376.05
                             2376.13  2379.87  2379.92  2394.08  5192.57
                             5192.74  5193.79  5193.96  5194.09  5230.68
                             5315.56  5315.70  5315.81  5316.51  5316.63
                             5316.74

 Zero-point correction=                           0.150862 (Hartree/Particle)
 Thermal correction to Energy=                    0.166004
 Thermal correction to Enthalpy=                  0.166948
 Thermal correction to Gibbs Free Energy=         0.110727
 Sum of electronic and zero-point Energies=          -1721.023761
 Sum of electronic and thermal Energies=             -1721.008619
 Sum of electronic and thermal Enthalpies=           -1721.007674
 Sum of electronic and thermal Free Energies=        -1721.063896

                     E (Thermal)             CV                S
                      KCal/Mol        Cal/Mol-Kelvin    Cal/Mol-Kelvin
 Total                  104.169             55.269            118.328
 Electronic               0.000              0.000              3.561
 Translational            0.889              2.981             41.193
 Rotational               0.889              2.981             28.855
 Vibrational            102.392             49.308             44.720
 Vibration     1          0.607              1.940              3.248
 Vibration     2          0.607              1.940              3.243
 Vibration     3          0.607              1.939              3.220
 Vibration     4          0.623              1.886              2.498
 Vibration     5          0.623              1.885              2.492
 Vibration     6          0.624              1.885              2.490
 Vibration     7          0.626              1.878              2.419
 Vibration     8          0.626              1.877              2.418
 Vibration     9          0.626              1.877              2.415
 Vibration    10          0.672              1.735              1.621
 Vibration    11          0.672              1.734              1.617
 Vibration    12          0.716              1.607              1.239
 Vibration    13          0.716              1.607              1.238
 Vibration    14          0.721              1.591              1.202
 Vibration    15          0.722              1.591              1.201
 Vibration    16          0.722              1.590              1.200
 Vibration    17          0.772              1.453              0.935
 Vibration    18          0.772              1.453              0.934
 Vibration    19          0.773              1.453              0.934
 Vibration    20          0.783              1.425              0.889
 Vibration    21          0.834              1.299              0.716
 Vibration    22          0.834              1.299              0.716
 Vibration    23          0.835              1.299              0.715
 Vibration    24          0.835              1.298              0.715
 Vibration    25          0.845              1.274              0.686
 Vibration    26          0.845              1.274              0.685
 Vibration    27          0.845              1.274              0.685

 Optimization completed.
    -- Stationary point found.
 Normal termination of Gaussian 16 at Wed Mar  5 22:04:06 2025.
 Gaussian 16:  ES64L-G16RevC.02  7-Dec-2021

 ----------------------------------------------------------------------
 #p TPSSH scrf=(cpcm,solvent=water) geom=allcheck guess=read chkbasis I
 Op(3/174=1000000) IOp(3/175=1219000) IOp(3/176=1223000)
 ----------------------------------------------------------------------

 Structure from the checkpoint file:  "Fe_2_TPSSh.chk_solvated"
 -----
 Title
 -----
 Charge =  3 Multiplicity = 6

                         Standard orientation:
 ---------------------------------------------------------------------
 Center     Atomic      Atomic             Coordinates (Angstroms)
 Number     Number       Type             X           Y           Z
 ---------------------------------------------------------------------
      1         26           0        0.000001   -0.000000   -0.000000
      2          8           0       -0.802275   -1.685209   -0.825545
      3          1           0       -1.566038   -2.191722   -0.484129
      4          8           0        1.262004   -1.148933    1.119246
      5          1           0        1.929896   -0.825802    1.756398
      6          8           0        1.389514    0.070492   -1.493187
      7          1           0        1.298315    0.533476   -2.349793
      8          8           0        0.802253    1.685223    0.825538
      9          1           0        0.494888    2.137411    1.636407
     10          8           0       -1.262000    1.148924   -1.119255
     11          1           0       -1.929929    0.825766   -1.756372
     12          8           0       -1.389497   -0.070496    1.493202
     13          1           0       -1.298284   -0.533476    2.349808
     14          1           0       -2.271084    0.352834    1.486011
     15          1           0        1.311443   -2.125672    1.119270
     16          1           0       -0.494941   -2.137378   -1.636435
     17          1           0       -1.311418    2.125675   -1.119313
     18          1           0        2.271102   -0.352832   -1.485980
     19          1           0        1.566037    2.191722    0.484146
 ---------------------------------------------------------------------

 SCF Done:  E(UTPSSh) =  -1721.81129940     A.U. after   11 cycles

 The electronic state is 6-A.
 Alpha  occ. eigenvalues -- -256.11190 -30.20335 -26.03482 -26.03481 -26.03481
 Alpha  occ. eigenvalues --  -19.19420 -19.19420 -19.19415 -19.19414 -19.19407
 Alpha  occ. eigenvalues --  -19.19407  -3.76057  -2.53065  -2.53063  -2.53062
 Alpha  occ. eigenvalues --   -1.11148  -1.10189  -1.10182  -1.10174  -1.10001
 Alpha  occ. eigenvalues --   -1.09993  -0.62058  -0.62046  -0.62043  -0.61523
 Alpha  occ. eigenvalues --   -0.61511  -0.61507  -0.60380  -0.60375  -0.58842
 Alpha  occ. eigenvalues --   -0.53345  -0.53344  -0.53342  -0.52891  -0.52884
 Alpha  occ. eigenvalues --   -0.52877  -0.41163  -0.41162  -0.41148  -0.41127
 Alpha  occ. eigenvalues --   -0.41123  -0.40357  -0.40355  -0.40342
 Alpha virt. eigenvalues --   -0.06906  -0.02111  -0.02105  -0.02101   0.03161
 Alpha virt. eigenvalues --    0.03167   0.03261   0.06732   0.06735   0.06738
 Alpha virt. eigenvalues --    0.07527   0.07541   0.07544   0.10569   0.13160

  Beta  occ. eigenvalues -- -256.11090 -30.12044 -25.96556 -25.96555 -25.96555
  Beta  occ. eigenvalues --  -19.19060 -19.19060 -19.19054 -19.19054 -19.19046
  Beta  occ. eigenvalues --  -19.19046  -3.54688  -2.30974  -2.30973  -2.30973
  Beta  occ. eigenvalues --   -1.10455  -1.09501  -1.09494  -1.09486  -1.09285
  Beta  occ. eigenvalues --   -1.09276  -0.61328  -0.61316  -0.61312  -0.61225
  Beta  occ. eigenvalues --   -0.61213  -0.61209  -0.57493  -0.53458  -0.53451
  Beta  occ. eigenvalues --   -0.51806  -0.51800  -0.51792  -0.41031  -0.41027
  Beta  occ. eigenvalues --   -0.41014  -0.39933  -0.39931  -0.39916
  Beta virt. eigenvalues --   -0.26436  -0.26435  -0.26435  -0.21646  -0.21643
  Beta virt. eigenvalues --   -0.06339  -0.01869  -0.01863  -0.01860   0.03594
  Beta virt. eigenvalues --    0.03600   0.03713   0.07201   0.07203   0.07206

 Mulliken charges and spin densities:
               1          2
     1  Fe   1.288266   4.356285
     2  O   -0.616045   0.100504
     3  H    0.450572   0.003348
     4  O   -0.615555   0.100718
     5  H    0.450577   0.003345
     6  O   -0.616152   0.100558
     7  H    0.450704   0.003345
     8  O   -0.616045   0.100505
     9  H    0.450575   0.003348
    10  O   -0.615554   0.100722
    11  H    0.450581   0.003345
    12  O   -0.616153   0.100557
    13  H    0.450703   0.003345
    14  H    0.450643   0.003345
    15  H    0.450544   0.003345
    16  H    0.450575   0.003348
    17  H    0.450548   0.003345
    18  H    0.450643   0.003345
    19  H    0.450572   0.003348
 Sum of Mulliken charges =   3.00000   5.00000

 Dipole moment (field-independent basis, Debye):
    X=             -0.0000    Y=              0.0000    Z=              0.0000  Tot=              0.0000
 Quadrupole moment (field-independent basis, Debye-Ang):
   XX=             -6.7586   YY=             -6.7584   ZZ=             -6.7482
   XY=             -0.0012   XZ=              0.0024   YZ=             -0.0035

 Normal termination of Gaussian 16 at Wed Mar  5 22:04:30 2025.
