 Gaussian 16, Revision C.02,

 ----------------------------------------------------------------------
 #p B97D 6-31+G(2df,p) opt=(cartesian,calcall,maxcycles=500) freq scf=(
 maxcycles=500,xqc,maxconventional=50) IOp(3/174=1000000) IOp(3/175=909
 000) IOp(3/176=892000)
 ----------------------------------------------------------------------

 -----
 Title
 -----
 Symbolic Z-matrix:
 Charge =  3 Multiplicity = 6

 SCF Done:  E(UB97D) =  -1721.21132608     A.U. after   18 cycles
 SCF Done:  E(UB97D) =  -1721.23916060     A.U. after   15 cycles
 SCF Done:  E(UB97D) =  -1721.28565028     A.U. after   15 cycles
 SCF Done:  E(UB97D) =  -1721.33515852     A.U. after   18 cycles
 SCF Done:  E(UB97D) =  -1721.34673841     A.U. after   17 cycles
 SCF Done:  E(UB97D) =  -1721.38002471     A.U. after   16 cycles
 SCF Done:  E(UB97D) =  -1721.40326650     A.U. after   17 cycles
 SCF Done:  E(UB97D) =  -1721.39428919     A.U. after   19 cycles
 SCF Done:  E(UB97D) =  -1721.41239457     A.U. after   16 cycles
 SCF Done:  E(UB97D) =  -1721.41580259     A.U. after   16 cycles
 SCF Done:  E(UB97D) =  -1721.43681708     A.U. after   10 cycles
 SCF Done:  E(UB97D) =  -1721.43681016     A.U. after    9 cycles
 SCF Done:  E(UB97D) =  -1721.43681725     A.U. after    9 cycles
 SCF Done:  E(UB97D) =  -1721.43681060     A.U. after    8 cycles
 SCF Done:  E(UB97D) =  -1721.43681870     A.U. after    9 cycles
 SCF Done:  E(UB97D) =  -1721.43681335     A.U. after    9 cycles
 SCF Done:  E(UB97D) =  -1721.43680879     A.U. after    9 cycles
 SCF Done:  E(UB97D) =  -1721.43681738     A.U. after    6 cycles
 Optimization completed.
    -- Stationary point found.
 Normal termination of Gaussian 16 at Wed Mar  5 19:51:57 2025.

 ----------------------------------------------------------------------
 #P Geom=AllCheck Guess=TCheck SCRF=Check Test GenChk UB97D/6-31+G(2df,
 p) Freq
 ----------------------------------------------------------------------

 Structure from the checkpoint file:  "Fe_2_B97D.chk"
 -----
 Title
 -----
 Charge =  3 Multiplicity = 6

 SCF Done:  E(UB97D) =  -1721.42524208     A.U. after    2 cycles

  Exact polarizability:      76.175      -0.001      76.175       0.002       0.000      76.148
 Approx polarizability:     130.769       0.004     130.765       0.005      -0.004     130.712

                      1                      2                      3
                      A                      A                      A
 Frequencies --    118.4116               119.5489               119.7192
 Red. masses --      4.4289                 4.4192                 4.4302
 Frc consts  --      0.0366                 0.0372                 0.0374
 IR Inten    --      0.2364                 0.2308                 0.2421

                      4                      5                      6
                      A                      A                      A
 Frequencies --    172.1103               172.3249               172.6695
 Red. masses --      5.0290                 5.0212                 5.0193
 Frc consts  --      0.0878                 0.0879                 0.0882
 IR Inten    --      0.0000                 0.0000                 0.0000

                      7                      8                      9
                      A                      A                      A
 Frequencies --    180.5009               180.7674               181.0099
 Red. masses --      5.3423                 5.3503                 5.3429
 Frc consts  --      0.1026                 0.1030                 0.1031
 IR Inten    --      0.0534                 0.0548                 0.0582

                     10                     11                     12
                      A                      A                      A
 Frequencies --    316.8009               316.9805               327.3104
 Red. masses --      5.8794                 5.8790                 1.0078
 Frc consts  --      0.3477                 0.3480                 0.0636
 IR Inten    --      0.0000                 0.0000                 0.0081

                     13                     14                     15
                      A                      A                      A
 Frequencies --    328.0924               380.5312               381.2124
 Red. masses --      1.0078                 1.0413                 1.0417
 Frc consts  --      0.0639                 0.0888                 0.0892
 IR Inten    --      0.0080                 0.0040                 0.0055

                     16                     17                     18
                      A                      A                      A
 Frequencies --    381.6237               387.3143               387.4809
 Red. masses --      1.0410                 3.8896                 3.9146
 Frc consts  --      0.0893                 0.3438                 0.3463
 IR Inten    --      0.0014                17.8118                17.2201

                     19                     20                     21
                      A                      A                      A
 Frequencies --    387.6218               394.0947               456.4832
 Red. masses --      3.9210                 6.0724                 1.3328
 Frc consts  --      0.3471                 0.5557                 0.1636
 IR Inten    --     17.1118                 0.0001               404.5208

                     22                     23                     24
                      A                      A                      A
 Frequencies --    456.9800               457.2607               461.3657
 Red. masses --      1.3294                 1.3296                 1.0967
 Frc consts  --      0.1636                 0.1638                 0.1375
 IR Inten    --    404.7791               405.0657                 0.0287

                     25                     26                     27
                      A                      A                      A
 Frequencies --    461.7388               462.4439               505.1817
 Red. masses --      1.0971                 1.0966                 1.0078
 Frc consts  --      0.1378                 0.1382                 0.1515
 IR Inten    --      0.0678                 0.0921                 0.0419

                     28                     29                     30
                      A                      A                      A
 Frequencies --    644.0396               644.2044               644.5508
 Red. masses --      1.1505                 1.1503                 1.1502
 Frc consts  --      0.2812                 0.2812                 0.2815
 IR Inten    --      0.0072                 0.0022                 0.0058

                     31                     32                     33
                      A                      A                      A
 Frequencies --    654.4205               654.4522               654.8200
 Red. masses --      1.2002                 1.1999                 1.1997
 Frc consts  --      0.3028                 0.3028                 0.3031
 IR Inten    --    148.2954               147.7486               147.7840

                     34                     35                     36
                      A                      A                      A
 Frequencies --   1610.0147              1610.1458              1610.2592
 Red. masses --      1.0899                 1.0899                 1.0899
 Frc consts  --      1.6645                 1.6648                 1.6650
 IR Inten    --    196.6353               196.6297               196.6274

                     37                     38                     39
                      A                      A                      A
 Frequencies --   1613.1828              1613.2469              1623.2326
 Red. masses --      1.0893                 1.0893                 1.0813
 Frc consts  --      1.6702                 1.6703                 1.6786
 IR Inten    --      0.0004                 0.0001                 0.0000

                     40                     41                     42
                      A                      A                      A
 Frequencies --   3559.0315              3559.0656              3559.1586
 Red. masses --      1.0430                 1.0430                 1.0430
 Frc consts  --      7.7838                 7.7839                 7.7843
 IR Inten    --    875.7272               875.7425               875.6429

                     43                     44                     45
                      A                      A                      A
 Frequencies --   3559.6562              3559.7387              3586.8730
 Red. masses --      1.0429                 1.0429                 1.0444
 Frc consts  --      7.7858                 7.7861                 7.9167
 IR Inten    --      0.0447                 0.1792                 0.0001

                     46                     47                     48
                      A                      A                      A
 Frequencies --   3664.6116              3664.6519              3664.7447
 Red. masses --      1.0860                 1.0860                 1.0860
 Frc consts  --      8.5926                 8.5928                 8.5932
 IR Inten    --      0.1043                 0.0521                 0.2476

                     49                     50                     51
                      A                      A                      A
 Frequencies --   3665.1604              3665.2008              3665.2943
 Red. masses --      1.0861                 1.0861                 1.0861
 Frc consts  --      8.5962                 8.5964                 8.5969
 IR Inten    --    515.5125               516.0290               515.8241

 - Thermochemistry -
 -------------------
 Temperature   298.150 Kelvin.  Pressure   1.00000 Atm.
 Atom     1 has atomic number 26 and mass  55.93494

 Molecular mass:   163.99833 amu.
 Principal axes and moments of inertia in atomic units:
                           1         2         3
     Eigenvalues --  1196.547101196.630851196.99218
           X            0.99857  -0.05337   0.00363
           Y            0.05333   0.99851   0.01148
           Z           -0.00424  -0.01127   0.99993
 This molecule is an asymmetric top.
 Rotational symmetry number  1.
 Warning -- assumption of classical behavior for rotation
           may cause significant error
 Rotational temperatures (Kelvin)      0.07239     0.07238     0.07236
 Rotational constants (GHZ):           1.50829     1.50819     1.50773
 Zero-point vibrational energy     392478.8 (Joules/Mol)
                                   93.80469 (Kcal/Mol)
 Warning -- explicit consideration of  27 degrees of freedom as
           vibrations may cause significant error
 Vibrational temperatures:    170.37   172.00   172.25   247.63   247.94
          (Kelvin)            248.43   259.70   260.08   260.43   455.81
                              456.06   470.93   472.05   547.50   548.48
                              549.07   557.26   557.50   557.70   567.01
                              656.78   657.49   657.90   663.80   664.34
                              665.35   726.84   926.63   926.87   927.36
                              941.57   941.61   942.14  2316.45  2316.64
                             2316.80  2321.01  2321.10  2335.47  5120.65
                             5120.70  5120.84  5121.55  5121.67  5160.71
                             5272.56  5272.62  5272.75  5273.35  5273.41
                             5273.54

 Zero-point correction=                           0.149487 (Hartree/Particle)
 Thermal correction to Energy=                    0.164426
 Thermal correction to Enthalpy=                  0.165370
 Thermal correction to Gibbs Free Energy=         0.109754
 Sum of electronic and zero-point Energies=          -1721.275755
 Sum of electronic and thermal Energies=             -1721.260816
 Sum of electronic and thermal Enthalpies=           -1721.259872
 Sum of electronic and thermal Free Energies=        -1721.315488

                     E (Thermal)             CV                S
                      KCal/Mol        Cal/Mol-Kelvin    Cal/Mol-Kelvin
 Total                  103.179             55.171            117.053
 Electronic               0.000              0.000              3.561
 Translational            0.889              2.981             41.193
 Rotational               0.889              2.981             28.929
 Vibrational            101.401             49.210             43.371
 Vibration     1          0.609              1.934              3.126
 Vibration     2          0.609              1.933              3.108
 Vibration     3          0.609              1.933              3.105
 Vibration     4          0.626              1.877              2.412
 Vibration     5          0.626              1.877              2.410
 Vibration     6          0.626              1.876              2.406
 Vibration     7          0.629              1.866              2.323
 Vibration     8          0.630              1.866              2.320
 Vibration     9          0.630              1.866              2.318
 Vibration    10          0.704              1.642              1.327
 Vibration    11          0.704              1.641              1.326
 Vibration    12          0.711              1.621              1.273
 Vibration    13          0.711              1.619              1.269
 Vibration    14          0.750              1.512              1.037
 Vibration    15          0.751              1.510              1.034
 Vibration    16          0.751              1.509              1.033
 Vibration    17          0.756              1.497              1.010
 Vibration    18          0.756              1.497              1.010
 Vibration    19          0.756              1.497              1.009
 Vibration    20          0.761              1.483              0.985
 Vibration    21          0.815              1.347              0.776
 Vibration    22          0.815              1.345              0.775
 Vibration    23          0.815              1.345              0.774
 Vibration    24          0.819              1.336              0.762
 Vibration    25          0.819              1.335              0.761
 Vibration    26          0.820              1.333              0.759
 Vibration    27          0.860              1.239              0.645

 Normal termination of Gaussian 16 at Wed Mar  5 19:53:35 2025.
 Gaussian 16:  ES64L-G16RevC.02  7-Dec-2021

 ----------------------------------------------------------------------
 #p B97D scrf=(cpcm,solvent=water) geom=allcheck guess=read chkbasis IO
 p(3/174=1000000) IOp(3/175=909000) IOp(3/176=892000)
 ----------------------------------------------------------------------

 Structure from the checkpoint file:  "Fe_2_B97D.chk_solvated"
 -----
 Title
 -----
 Charge =  3 Multiplicity = 6

                         Standard orientation:
 ---------------------------------------------------------------------
 Center     Atomic      Atomic             Coordinates (Angstroms)
 Number     Number       Type             X           Y           Z
 ---------------------------------------------------------------------
      1         26           0        0.000046   -0.000034    0.000014
      2          8           0       -0.290445    1.857149   -0.863953
      3          1           0        0.211814    2.670844   -0.653259
      4          8           0       -1.375767    0.470015    1.471548
      5          1           0       -1.643803   -0.112564    2.211497
      6          8           0       -1.517787   -0.781291   -1.168606
      7          1           0       -1.409331   -1.177063   -2.057628
      8          8           0        0.290183   -1.857494    0.863319
      9          1           0        0.953994   -2.071612    1.550535
     10          8           0        1.376139   -0.469157   -1.471490
     11          1           0        1.646094    0.115087   -2.209422
     12          8           0        1.517581    0.780842    1.169148
     13          1           0        1.408587    1.177431    2.057739
     14          1           0        2.465748    0.815549    0.927230
     15          1           0       -1.867914    1.313257    1.545631
     16          1           0       -0.953343    2.070317   -1.552341
     17          1           0        1.866713   -1.313141   -1.547556
     18          1           0       -2.465659   -0.817185   -0.925709
     19          1           0       -0.213310   -2.670569    0.653182
 ---------------------------------------------------------------------

 SCF Done:  E(UB97D) =  -1722.07219884     A.U. after   12 cycles

 The electronic state is 6-A.
 Alpha  occ. eigenvalues -- -254.89398 -29.91356 -25.88114 -25.88113 -25.88113
 Alpha  occ. eigenvalues --  -18.89311 -18.89310 -18.89307 -18.89307 -18.89307
 Alpha  occ. eigenvalues --  -18.89306  -3.61350  -2.42548  -2.42547  -2.42547
 Alpha  occ. eigenvalues --   -1.04578  -1.03773  -1.03769  -1.03768  -1.03602
 Alpha  occ. eigenvalues --   -1.03599  -0.58812  -0.58807  -0.58805  -0.58496
 Alpha  occ. eigenvalues --   -0.58491  -0.58489  -0.55279  -0.55278  -0.54407
 Alpha  occ. eigenvalues --   -0.49062  -0.49060  -0.49057  -0.48543  -0.48542
 Alpha  occ. eigenvalues --   -0.48540  -0.37998  -0.37995  -0.37994  -0.37934
 Alpha  occ. eigenvalues --   -0.37931  -0.37264  -0.37261  -0.37260
 Alpha virt. eigenvalues --   -0.08409  -0.03658  -0.03651  -0.03650   0.01093
 Alpha virt. eigenvalues --    0.01096   0.02536   0.04943   0.04944   0.04947
 Alpha virt. eigenvalues --    0.05605   0.05610   0.05612   0.08434   0.11725

  Beta  occ. eigenvalues -- -254.89278 -29.82507 -25.81580 -25.81580 -25.81580
  Beta  occ. eigenvalues --  -18.89073 -18.89071 -18.89069 -18.89068 -18.89068
  Beta  occ. eigenvalues --  -18.89067  -3.41088  -2.22486  -2.22485  -2.22484
  Beta  occ. eigenvalues --   -1.03837  -1.03035  -1.03031  -1.03030  -1.02840
  Beta  occ. eigenvalues --   -1.02836  -0.58178  -0.58173  -0.58170  -0.58082
  Beta  occ. eigenvalues --   -0.58077  -0.58074  -0.53244  -0.49636  -0.49633
  Beta  occ. eigenvalues --   -0.48125  -0.48123  -0.48119  -0.37994  -0.37991
  Beta  occ. eigenvalues --   -0.37990  -0.36913  -0.36910  -0.36908
  Beta virt. eigenvalues --   -0.28736  -0.28735  -0.28733  -0.24066  -0.24063
  Beta virt. eigenvalues --   -0.07840  -0.03345  -0.03338  -0.03337   0.01421
  Beta virt. eigenvalues --    0.01425   0.03383   0.05350   0.05351   0.05354

 Mulliken charges and spin densities:
               1          2
     1  Fe   1.301843   4.217808
     2  O   -0.593487   0.128188
     3  H    0.438208   0.001045
     4  O   -0.593343   0.128304
     5  H    0.438258   0.001045
     6  O   -0.593485   0.128267
     7  H    0.438258   0.001043
     8  O   -0.593415   0.128252
     9  H    0.438200   0.001044
    10  O   -0.593305   0.128341
    11  H    0.438249   0.001042
    12  O   -0.593420   0.128326
    13  H    0.438255   0.001040
    14  H    0.438227   0.001043
    15  H    0.438168   0.001042
    16  H    0.438189   0.001045
    17  H    0.438180   0.001043
    18  H    0.438219   0.001043
    19  H    0.438200   0.001041
 Sum of Mulliken charges =   3.00000   5.00000

 Dipole moment (field-independent basis, Debye):
    X=              0.0004    Y=             -0.0001    Z=              0.0002  Tot=              0.0004
 Quadrupole moment (field-independent basis, Debye-Ang):
   XX=             -6.2694   YY=             -6.2609   ZZ=             -6.2698
   XY=              0.0088   XZ=             -0.0048   YZ=              0.0048

 Normal termination of Gaussian 16 at Wed Mar  5 19:54:21 2025.
