 Gaussian 16, Revision C.02,

 ----------------------------------------------------------------------
 #p OPBE 6-31+G(2df,p) opt=(cartesian,calcall,maxcycles=500) freq scf=(
 maxcycles=500,xqc,maxconventional=50) IOp(3/174=1000000) IOp(3/175=205
 5000) IOp(3/176=837000)
 ----------------------------------------------------------------------

 -----
 Title
 -----
 Symbolic Z-matrix:
 Charge =  3 Multiplicity = 6

 SCF Done:  E(UO-PBE) =  -1720.94715621     A.U. after   18 cycles
 SCF Done:  E(UO-PBE) =  -1720.97702912     A.U. after   13 cycles
 SCF Done:  E(UO-PBE) =  -1721.02758547     A.U. after   15 cycles
 SCF Done:  E(UO-PBE) =  -1721.08516253     A.U. after   17 cycles
 SCF Done:  E(UO-PBE) =  -1721.10761354     A.U. after   17 cycles
 SCF Done:  E(UO-PBE) =  -1721.12920854     A.U. after   15 cycles
 SCF Done:  E(UO-PBE) =  -1721.15227123     A.U. after   17 cycles
 SCF Done:  E(UO-PBE) =  -1721.15806288     A.U. after   17 cycles
 SCF Done:  E(UO-PBE) =  -1721.16981010     A.U. after   16 cycles
 SCF Done:  E(UO-PBE) =  -1721.16695133     A.U. after   16 cycles
 SCF Done:  E(UO-PBE) =  -1721.17872311     A.U. after   18 cycles
 SCF Done:  E(UO-PBE) =  -1721.19066658     A.U. after   11 cycles
 SCF Done:  E(UO-PBE) =  -1721.19147792     A.U. after   14 cycles
 SCF Done:  E(UO-PBE) =  -1721.19282315     A.U. after   14 cycles
 SCF Done:  E(UO-PBE) =  -1721.19304928     A.U. after   13 cycles
 SCF Done:  E(UO-PBE) =  -1721.19315061     A.U. after   13 cycles
 SCF Done:  E(UO-PBE) =  -1721.19315916     A.U. after   11 cycles
 SCF Done:  E(UO-PBE) =  -1721.19316442     A.U. after    9 cycles
 Optimization completed.
    -- Stationary point found.
 Normal termination of Gaussian 16 at Wed Mar  5 21:35:51 2025.

 ----------------------------------------------------------------------
 #P Geom=AllCheck Guess=TCheck SCRF=Check Test GenChk UOPBE/6-31+G(2df,
 p) Freq
 ----------------------------------------------------------------------

 Structure from the checkpoint file:  "Fe_2_OPBE.chk"
 -----
 Title
 -----
 Charge =  3 Multiplicity = 6

 SCF Done:  E(UO-PBE) =  -1721.19316442     A.U. after    1 cycles

  Exact polarizability:      75.827       0.001      75.825       0.001       0.002      75.818
 Approx polarizability:     128.956       0.003     128.937      -0.002      -0.002     128.920

                      1                      2                      3
                      A                      A                      A
 Frequencies --    112.5901               112.7753               113.3973
 Red. masses --      4.4744                 4.4644                 4.4649
 Frc consts  --      0.0334                 0.0335                 0.0338
 IR Inten    --      0.3789                 0.3714                 0.3648

                      4                      5                      6
                      A                      A                      A
 Frequencies --    165.7095               166.1119               166.2381
 Red. masses --      5.2022                 5.2097                 5.2079
 Frc consts  --      0.0842                 0.0847                 0.0848
 IR Inten    --      0.0000                 0.0000                 0.0000

                      7                      8                      9
                      A                      A                      A
 Frequencies --    174.5549               174.7170               174.8854
 Red. masses --      5.5506                 5.5475                 5.5473
 Frc consts  --      0.0996                 0.0998                 0.1000
 IR Inten    --      0.0003                 0.0004                 0.0004

                     10                     11                     12
                      A                      A                      A
 Frequencies --    258.1931               258.2158               286.4106
 Red. masses --      1.0078                 1.0078                 5.7894
 Frc consts  --      0.0396                 0.0396                 0.2798
 IR Inten    --      0.0026                 0.0015                 0.0000

                     13                     14                     15
                      A                      A                      A
 Frequencies --    286.5188               326.3876               326.5824
 Red. masses --      5.7896                 1.0293                 1.0292
 Frc consts  --      0.2800                 0.0646                 0.0647
 IR Inten    --      0.0000                 0.0002                 0.0001

                     16                     17                     18
                      A                      A                      A
 Frequencies --    326.9897               351.1181               351.3660
 Red. masses --      1.0289                 4.6588                 4.6619
 Frc consts  --      0.0648                 0.3384                 0.3391
 IR Inten    --      0.0001                 4.3738                 4.3527

                     19                     20                     21
                      A                      A                      A
 Frequencies --    351.7064               365.4295               431.4926
 Red. masses --      4.6455                 6.0035                 1.2485
 Frc consts  --      0.3386                 0.4724                 0.1370
 IR Inten    --      4.5023                 0.0000               406.7661

                     22                     23                     24
                      A                      A                      A
 Frequencies --    431.5384               431.6511               436.7341
 Red. masses --      1.2488                 1.2485                 1.1095
 Frc consts  --      0.1370                 0.1371                 0.1247
 IR Inten    --    407.3776               407.1046                 0.0425

                     25                     26                     27
                      A                      A                      A
 Frequencies --    436.9170               437.2877               455.3698
 Red. masses --      1.1094                 1.1091                 1.0079
 Frc consts  --      0.1248                 0.1250                 0.1231
 IR Inten    --      0.0090                 0.0138                 0.0729

                     28                     29                     30
                      A                      A                      A
 Frequencies --    618.5714               618.7326               618.8623
 Red. masses --      1.1443                 1.1440                 1.1440
 Frc consts  --      0.2580                 0.2580                 0.2581
 IR Inten    --      0.0004                 0.0033                 0.0006

                     31                     32                     33
                      A                      A                      A
 Frequencies --    628.1296               628.2573               628.3752
 Red. masses --      1.1975                 1.1970                 1.1970
 Frc consts  --      0.2784                 0.2784                 0.2785
 IR Inten    --    150.1642               149.9286               149.9898

                     34                     35                     36
                      A                      A                      A
 Frequencies --   1629.2093              1629.3721              1629.3974
 Red. masses --      1.0914                 1.0914                 1.0914
 Frc consts  --      1.7068                 1.7071                 1.7072
 IR Inten    --    184.6123               184.6486               184.7184

                     37                     38                     39
                      A                      A                      A
 Frequencies --   1631.8782              1631.9823              1642.1276
 Red. masses --      1.0911                 1.0910                 1.0824
 Frc consts  --      1.7119                 1.7121                 1.7196
 IR Inten    --      0.0005                 0.0001                 0.0000

                     40                     41                     42
                      A                      A                      A
 Frequencies --   3652.7432              3653.0207              3653.0355
 Red. masses --      1.0442                 1.0442                 1.0442
 Frc consts  --      8.2087                 8.2100                 8.2100
 IR Inten    --    895.6592               892.2620               831.5740

                     43                     44                     45
                      A                      A                      A
 Frequencies --   3653.1561              3653.3565              3680.3450
 Red. masses --      1.0441                 1.0441                 1.0455
 Frc consts  --      8.2101                 8.2110                 8.3433
 IR Inten    --     39.9979                28.0349                 0.0023

                     46                     47                     48
                      A                      A                      A
 Frequencies --   3749.7335              3749.9940              3750.0089
 Red. masses --      1.0848                 1.0848                 1.0848
 Frc consts  --      8.9869                 8.9881                 8.9882
 IR Inten    --      0.0525                 0.9362                11.3287

                     49                     50                     51
                      A                      A                      A
 Frequencies --   3750.1821              3750.4440              3750.4794
 Red. masses --      1.0848                 1.0848                 1.0848
 Frc consts  --      8.9892                 8.9905                 8.9906
 IR Inten    --    498.9156               498.8528               487.0754

 - Thermochemistry -
 -------------------
 Temperature   298.150 Kelvin.  Pressure   1.00000 Atm.
 Atom     1 has atomic number 26 and mass  55.93494

 Molecular mass:   163.99833 amu.
 Principal axes and moments of inertia in atomic units:
                           1         2         3
     Eigenvalues --  1205.535841205.654201205.79882
           X            0.99983   0.01862  -0.00124
           Y           -0.01861   0.99975   0.01226
           Z            0.00147  -0.01223   0.99992
 This molecule is an asymmetric top.
 Rotational symmetry number  1.
 Warning -- assumption of classical behavior for rotation
           may cause significant error
 Rotational temperatures (Kelvin)      0.07185     0.07184     0.07183
 Rotational constants (GHZ):           1.49704     1.49690     1.49672
 Zero-point vibrational energy     394123.4 (Joules/Mol)
                                   94.19775 (Kcal/Mol)
 Warning -- explicit consideration of  30 degrees of freedom as
           vibrations may cause significant error
 Vibrational temperatures:    161.99   162.26   163.15   238.42   239.00
          (Kelvin)            239.18   251.15   251.38   251.62   371.48
                              371.51   412.08   412.24   469.60   469.88
                              470.47   505.18   505.54   506.03   525.77
                              620.82   620.89   621.05   628.36   628.63
                              629.16   655.18   889.99   890.22   890.40
                              903.74   903.92   904.09  2344.07  2344.30
                             2344.34  2347.91  2348.06  2362.66  5255.48
                             5255.88  5255.90  5256.08  5256.37  5295.20
                             5395.03  5395.41  5395.43  5395.68  5396.05
                             5396.10

 Zero-point correction=                           0.150114 (Hartree/Particle)
 Thermal correction to Energy=                    0.165967
 Thermal correction to Enthalpy=                  0.166911
 Thermal correction to Gibbs Free Energy=         0.109396
 Sum of electronic and zero-point Energies=          -1721.043051
 Sum of electronic and thermal Energies=             -1721.027197
 Sum of electronic and thermal Enthalpies=           -1721.026253
 Sum of electronic and thermal Free Energies=        -1721.083769

                     E (Thermal)             CV                S
                      KCal/Mol        Cal/Mol-Kelvin    Cal/Mol-Kelvin
 Total                  104.146             56.972            121.052
 Electronic               0.000              0.000              3.561
 Translational            0.889              2.981             41.193
 Rotational               0.889              2.981             28.951
 Vibrational            102.369             51.010             47.348
 Vibration     1          0.607              1.939              3.224
 Vibration     2          0.607              1.939              3.221
 Vibration     3          0.607              1.938              3.210
 Vibration     4          0.624              1.885              2.484
 Vibration     5          0.624              1.884              2.479
 Vibration     6          0.624              1.884              2.478
 Vibration     7          0.627              1.874              2.386
 Vibration     8          0.627              1.874              2.384
 Vibration     9          0.627              1.873              2.382
 Vibration    10          0.667              1.749              1.674
 Vibration    11          0.667              1.749              1.674
 Vibration    12          0.684              1.699              1.495
 Vibration    13          0.684              1.699              1.494
 Vibration    14          0.710              1.623              1.278
 Vibration    15          0.710              1.622              1.277
 Vibration    16          0.711              1.622              1.275
 Vibration    17          0.728              1.573              1.161
 Vibration    18          0.728              1.572              1.160
 Vibration    19          0.728              1.572              1.159
 Vibration    20          0.739              1.543              1.099
 Vibration    21          0.793              1.402              0.854
 Vibration    22          0.793              1.402              0.854
 Vibration    23          0.793              1.401              0.853
 Vibration    24          0.797              1.390              0.837
 Vibration    25          0.797              1.390              0.836
 Vibration    26          0.798              1.389              0.835
 Vibration    27          0.814              1.349              0.780
 Vibration    28          0.978              0.993              0.419
 Vibration    29          0.979              0.992              0.419
 Vibration    30          0.979              0.992              0.418

 Normal termination of Gaussian 16 at Wed Mar  5 21:37:22 2025.
 Gaussian 16:  ES64L-G16RevC.02  7-Dec-2021

 ----------------------------------------------------------------------
 #p OPBE scrf=(cpcm,solvent=water) geom=allcheck guess=read chkbasis IO
 p(3/174=1000000) IOp(3/175=2055000) IOp(3/176=837000)
 ----------------------------------------------------------------------

 Structure from the checkpoint file:  "Fe_2_OPBE.chk_solvated"
 -----
 Title
 -----
 Charge =  3 Multiplicity = 6

                         Standard orientation:
 ---------------------------------------------------------------------
 Center     Atomic      Atomic             Coordinates (Angstroms)
 Number     Number       Type             X           Y           Z
 ---------------------------------------------------------------------
      1         26           0       -0.000045    0.000009    0.000025
      2          8           0        1.349950    0.027211    1.576919
      3          1           0        1.424435    0.710349    2.267254
      4          8           0        1.355029    1.042568   -1.177698
      5          1           0        1.226570    1.324756   -2.101088
      6          8           0        0.807747   -1.795007   -0.659941
      7          1           0        0.524079   -2.690386   -0.401838
      8          8           0       -1.350155   -0.028083   -1.576731
      9          1           0       -2.032493    0.639578   -1.770183
     10          8           0       -1.355048   -1.042112    1.178101
     11          1           0       -1.226771   -1.323325    2.101804
     12          8           0       -0.807413    1.795409    0.659289
     13          1           0       -0.523186    2.690522    0.400882
     14          1           0       -1.543687    1.906413    1.287273
     15          1           0        2.242711    1.344741   -0.914072
     16          1           0        2.031577   -0.641155    1.770443
     17          1           0       -2.242551   -1.344830    0.914546
     18          1           0        1.543807   -1.905343   -1.288296
     19          1           0       -1.424199   -0.711442   -2.266891
 ---------------------------------------------------------------------

 SCF Done:  E(UO-PBE) =  -1721.82704073     A.U. after   12 cycles

 The electronic state is 6-A.
 Alpha  occ. eigenvalues -- -254.88873 -29.88691 -25.81913 -25.81913 -25.81912
 Alpha  occ. eigenvalues --  -18.88392 -18.88391 -18.88390 -18.88389 -18.88388
 Alpha  occ. eigenvalues --  -18.88387  -3.62473  -2.43032  -2.43031  -2.43030
 Alpha  occ. eigenvalues --   -1.05383  -1.04630  -1.04628  -1.04626  -1.04475
 Alpha  occ. eigenvalues --   -1.04472  -0.58632  -0.58630  -0.58627  -0.58316
 Alpha  occ. eigenvalues --   -0.58315  -0.58312  -0.55573  -0.55571  -0.54774
 Alpha  occ. eigenvalues --   -0.49417  -0.49414  -0.49411  -0.48769  -0.48768
 Alpha  occ. eigenvalues --   -0.48767  -0.38292  -0.38290  -0.37735  -0.37733
 Alpha  occ. eigenvalues --   -0.37730  -0.37036  -0.37034  -0.37031
 Alpha virt. eigenvalues --   -0.08332  -0.03734  -0.03732  -0.03729   0.01273
 Alpha virt. eigenvalues --    0.01275   0.02175   0.05001   0.05002   0.05004
 Alpha virt. eigenvalues --    0.05732   0.05735   0.05736   0.07920   0.11937

  Beta  occ. eigenvalues -- -254.88806 -29.79793 -25.75390 -25.75389 -25.75389
  Beta  occ. eigenvalues --  -18.88111 -18.88110 -18.88109 -18.88108 -18.88107
  Beta  occ. eigenvalues --  -18.88106  -3.42906  -2.23466  -2.23466  -2.23465
  Beta  occ. eigenvalues --   -1.04685  -1.03948  -1.03946  -1.03944  -1.03768
  Beta  occ. eigenvalues --   -1.03766  -0.58017  -0.58015  -0.58013  -0.57934
  Beta  occ. eigenvalues --   -0.57933  -0.57930  -0.53420  -0.49937  -0.49934
  Beta  occ. eigenvalues --   -0.48488  -0.48485  -0.48482  -0.37742  -0.37741
  Beta  occ. eigenvalues --   -0.37737  -0.36712  -0.36709  -0.36706
  Beta virt. eigenvalues --   -0.28682  -0.28680  -0.28679  -0.24460  -0.24458
  Beta virt. eigenvalues --   -0.07701  -0.03497  -0.03495  -0.03491   0.01621
  Beta virt. eigenvalues --    0.01623   0.02999   0.05440   0.05441   0.05443

 Mulliken charges and spin densities:
               1          2
     1  Fe   1.395270   4.297692
     2  O   -0.605668   0.113555
     3  H    0.436617   0.001742
     4  O   -0.605549   0.113593
     5  H    0.436535   0.001741
     6  O   -0.605741   0.113492
     7  H    0.436545   0.001743
     8  O   -0.605651   0.113578
     9  H    0.436513   0.001743
    10  O   -0.605489   0.113653
    11  H    0.436528   0.001738
    12  O   -0.605695   0.113539
    13  H    0.436535   0.001740
    14  H    0.436550   0.001743
    15  H    0.436524   0.001741
    16  H    0.436505   0.001743
    17  H    0.436523   0.001740
    18  H    0.436539   0.001743
    19  H    0.436609   0.001740
 Sum of Mulliken charges =   3.00000   5.00000

 Dipole moment (field-independent basis, Debye):
    X=             -0.0006    Y=             -0.0001    Z=              0.0003  Tot=              0.0007
 Quadrupole moment (field-independent basis, Debye-Ang):
   XX=             -5.8682   YY=             -5.8628   ZZ=             -5.8525
   XY=              0.0055   XZ=             -0.0003   YZ=              0.0041

 Normal termination of Gaussian 16 at Wed Mar  5 21:38:09 2025.
