 Gaussian 16, Revision C.02,

 ----------------------------------------------------------------------
 #p M08HX 6-31+G(2df,p) opt=(cartesian,calcall,maxcycles=500,loose) fre
 q scf=(maxcycles=500,xqc,maxconventional=50) IOp(3/174=1000000) IOp(3/
 175=0) IOp(3/176=1624700)
 ----------------------------------------------------------------------

 -----
 Title
 -----
 Symbolic Z-matrix:
 Charge =  3 Multiplicity = 6

 SCF Done:  E(UM08HX) =  -1720.71537922     A.U. after   15 cycles
 SCF Done:  E(UM08HX) =  -1720.74629539     A.U. after   14 cycles
 SCF Done:  E(UM08HX) =  -1720.79847332     A.U. after   15 cycles
 SCF Done:  E(UM08HX) =  -1720.85580623     A.U. after   16 cycles
 SCF Done:  E(UM08HX) =  -1720.87074885     A.U. after   16 cycles
 SCF Done:  E(UM08HX) =  -1720.90976364     A.U. after   15 cycles
 SCF Done:  E(UM08HX) =  -1720.93675627     A.U. after   14 cycles
 SCF Done:  E(UM08HX) =  -1720.93795919     A.U. after   14 cycles
 SCF Done:  E(UM08HX) =  -1720.94853207     A.U. after   13 cycles
 SCF Done:  E(UM08HX) =  -1720.94753766     A.U. after   14 cycles
 SCF Done:  E(UM08HX) =  -1720.93948959     A.U. after   15 cycles
 SCF Done:  E(UM08HX) =  -1720.96566263     A.U. after   13 cycles
 SCF Done:  E(UM08HX) =  -1720.96660687     A.U. after   11 cycles
 SCF Done:  E(UM08HX) =  -1720.96706012     A.U. after   12 cycles
 SCF Done:  E(UM08HX) =  -1720.96727695     A.U. after   12 cycles
 SCF Done:  E(UM08HX) =  -1720.96730128     A.U. after   12 cycles
 SCF Done:  E(UM08HX) =  -1720.96730867     A.U. after   11 cycles
 SCF Done:  E(UM08HX) =  -1720.96731764     A.U. after    9 cycles
 Optimization completed.
    -- Stationary point found.
 Normal termination of Gaussian 16 at Wed Mar  5 19:52:11 2025.

 ----------------------------------------------------------------------
 #P Geom=AllCheck Guess=TCheck SCRF=Check Test GenChk UM08HX/6-31+G(2df
 ,p) Freq
 ----------------------------------------------------------------------

 Structure from the checkpoint file:  "Fe_2_M08-HX.chk"
 -----
 Title
 -----
 Charge =  3 Multiplicity = 6

 SCF Done:  E(UM08HX) =  -1720.96731764     A.U. after    1 cycles

  Exact polarizability:      54.556       0.007      54.557      -0.004      -0.010      54.574
 Approx polarizability:      57.639       0.000      57.640      -0.001      -0.001      57.626

                      1                      2                      3
                      A                      A                      A
 Frequencies --    113.6592               115.7197               118.6013
 Red. masses --      4.4319                 4.4407                 4.4294
 Frc consts  --      0.0337                 0.0350                 0.0367
 IR Inten    --      1.7392                 1.7393                 1.7199

                      4                      5                      6
                      A                      A                      A
 Frequencies --    165.7981               166.8948               167.4304
 Red. masses --      4.7137                 4.6899                 4.7060
 Frc consts  --      0.0763                 0.0770                 0.0777
 IR Inten    --      0.0000                 0.0000                 0.0000

                      7                      8                      9
                      A                      A                      A
 Frequencies --    169.3752               170.2942               170.9948
 Red. masses --      5.2843                 5.2683                 5.2734
 Frc consts  --      0.0893                 0.0900                 0.0908
 IR Inten    --      0.1361                 0.1243                 0.1113

                     10                     11                     12
                      A                      A                      A
 Frequencies --    253.3095               261.9116               332.4196
 Red. masses --      1.0084                 1.0081                 1.0222
 Frc consts  --      0.0381                 0.0407                 0.0666
 IR Inten    --      0.4519                 0.2317                 0.0003

                     13                     14                     15
                      A                      A                      A
 Frequencies --    336.7733               343.7818               361.8062
 Red. masses --      1.0201                 1.0212                 5.7678
 Frc consts  --      0.0682                 0.0711                 0.4448
 IR Inten    --      0.0002                 0.0000                 0.0000

                     16                     17                     18
                      A                      A                      A
 Frequencies --    362.2052               443.1011               443.9323
 Red. masses --      5.7667                 4.7433                 4.7356
 Frc consts  --      0.4457                 0.5487                 0.5499
 IR Inten    --      0.0000                 3.9332                 4.3039

                     19                     20                     21
                      A                      A                      A
 Frequencies --    444.3509               452.6053               477.8409
 Red. masses --      4.9440                 6.0055                 1.0135
 Frc consts  --      0.5751                 0.7248                 0.1364
 IR Inten    --      2.4527                 0.0000                 3.6978

                     22                     23                     24
                      A                      A                      A
 Frequencies --    511.5051               515.0659               518.9939
 Red. masses --      1.1299                 1.1286                 1.1317
 Frc consts  --      0.1742                 0.1764                 0.1796
 IR Inten    --      0.0609                 0.0207                 0.0129

                     25                     26                     27
                      A                      A                      A
 Frequencies --    532.3011               534.1778               539.2921
 Red. masses --      1.2172                 1.2096                 1.2007
 Frc consts  --      0.2032                 0.2034                 0.2057
 IR Inten    --    421.8859               416.0867               417.2540

                     28                     29                     30
                      A                      A                      A
 Frequencies --    650.0506               650.4742               652.3439
 Red. masses --      1.1605                 1.1603                 1.1595
 Frc consts  --      0.2889                 0.2893                 0.2907
 IR Inten    --      0.0198                 0.0896                 0.0338

                     31                     32                     33
                      A                      A                      A
 Frequencies --    666.2868               667.0134               668.6781
 Red. masses --      1.2391                 1.2396                 1.2372
 Frc consts  --      0.3241                 0.3249                 0.3259
 IR Inten    --    331.6590               336.8746               333.7983

                     34                     35                     36
                      A                      A                      A
 Frequencies --   1663.0659              1663.5620              1664.3507
 Red. masses --      1.0913                 1.0914                 1.0914
 Frc consts  --      1.7784                 1.7795                 1.7812
 IR Inten    --    290.2048               290.6396               290.3728

                     37                     38                     39
                      A                      A                      A
 Frequencies --   1664.9355              1665.7007              1674.0195
 Red. masses --      1.0923                 1.0923                 1.0819
 Frc consts  --      1.7840                 1.7856                 1.7863
 IR Inten    --      0.1617                 0.0074                 0.0022

                     40                     41                     42
                      A                      A                      A
 Frequencies --   3709.8621              3711.6234              3711.7479
 Red. masses --      1.0437                 1.0440                 1.0437
 Frc consts  --      8.4637                 8.4737                 8.4717
 IR Inten    --     36.9476               615.6252                 2.7827

                     43                     44                     45
                      A                      A                      A
 Frequencies --   3714.0547              3714.1729              3735.7223
 Red. masses --      1.0440                 1.0439                 1.0459
 Frc consts  --      8.4846                 8.4846                 8.5997
 IR Inten    --    656.1763               656.0694                 0.0755

                     46                     47                     48
                      A                      A                      A
 Frequencies --   3780.0256              3781.3947              3783.1142
 Red. masses --      1.0854                 1.0855                 1.0854
 Frc consts  --      9.1373                 9.1448                 9.1528
 IR Inten    --     92.4761               544.9034                 0.4908

                     49                     50                     51
                      A                      A                      A
 Frequencies --   3783.4806              3784.0950              3784.4662
 Red. masses --      1.0855                 1.0856                 1.0856
 Frc consts  --      9.1553                 9.1587                 9.1610
 IR Inten    --      0.0936               637.3838               640.1712

 - Thermochemistry -
 -------------------
 Temperature   298.150 Kelvin.  Pressure   1.00000 Atm.
 Atom     1 has atomic number 26 and mass  55.93494

 Molecular mass:   163.99833 amu.
 Principal axes and moments of inertia in atomic units:
                           1         2         3
     Eigenvalues --  1162.109221162.139391162.51226
           X            0.96351  -0.26768  -0.00034
           Y            0.26763   0.96332   0.01970
           Z           -0.00494  -0.01907   0.99981
 This molecule is an asymmetric top.
 Rotational symmetry number  1.
 Warning -- assumption of classical behavior for rotation
           may cause significant error
 Rotational temperatures (Kelvin)      0.07453     0.07453     0.07451
 Rotational constants (GHZ):           1.55299     1.55295     1.55245
 Zero-point vibrational energy     406541.2 (Joules/Mol)
                                   97.16568 (Kcal/Mol)
 Warning -- explicit consideration of  27 degrees of freedom as
           vibrations may cause significant error
 Vibrational temperatures:    163.53   166.49   170.64   238.55   240.12
          (Kelvin)            240.89   243.69   245.02   246.02   364.46
                              376.83   478.28   484.54   494.63   520.56
                              521.13   637.52   638.72   639.32   651.20
                              687.51   735.94   741.06   746.72   765.86
                              768.56   775.92   935.28   935.89   938.58
                              958.64   959.68   962.08  2392.78  2393.49
                             2394.63  2395.47  2396.57  2408.54  5337.66
                             5340.20  5340.38  5343.70  5343.87  5374.87
                             5438.61  5440.58  5443.06  5443.58  5444.47
                             5445.00

 Zero-point correction=                           0.154843 (Hartree/Particle)
 Thermal correction to Energy=                    0.169578
 Thermal correction to Enthalpy=                  0.170522
 Thermal correction to Gibbs Free Energy=         0.115032
 Sum of electronic and zero-point Energies=          -1720.812474
 Sum of electronic and thermal Energies=             -1720.797740
 Sum of electronic and thermal Enthalpies=           -1720.796796
 Sum of electronic and thermal Free Energies=        -1720.852286

                     E (Thermal)             CV                S
                      KCal/Mol        Cal/Mol-Kelvin    Cal/Mol-Kelvin
 Total                  106.412             54.108            116.789
 Electronic               0.000              0.000              3.561
 Translational            0.889              2.981             41.193
 Rotational               0.889              2.981             28.842
 Vibrational            104.634             48.147             43.194
 Vibration     1          0.607              1.938              3.205
 Vibration     2          0.608              1.936              3.171
 Vibration     3          0.609              1.934              3.123
 Vibration     4          0.624              1.885              2.483
 Vibration     5          0.624              1.883              2.470
 Vibration     6          0.624              1.883              2.464
 Vibration     7          0.625              1.880              2.442
 Vibration     8          0.625              1.879              2.432
 Vibration     9          0.626              1.878              2.425
 Vibration    10          0.664              1.757              1.707
 Vibration    11          0.669              1.743              1.649
 Vibration    12          0.714              1.611              1.248
 Vibration    13          0.717              1.602              1.227
 Vibration    14          0.723              1.588              1.195
 Vibration    15          0.736              1.551              1.114
 Vibration    16          0.736              1.550              1.113
 Vibration    17          0.803              1.376              0.817
 Vibration    18          0.803              1.374              0.814
 Vibration    19          0.804              1.373              0.813
 Vibration    20          0.811              1.355              0.788
 Vibration    21          0.834              1.299              0.716
 Vibration    22          0.867              1.225              0.630
 Vibration    23          0.870              1.217              0.622
 Vibration    24          0.874              1.208              0.612
 Vibration    25          0.887              1.179              0.582
 Vibration    26          0.889              1.174              0.578
 Vibration    27          0.894              1.163              0.567

 Optimization completed.
    -- Stationary point found.
 Normal termination of Gaussian 16 at Wed Mar  5 19:54:39 2025.
 Gaussian 16:  ES64L-G16RevC.02  7-Dec-2021

 ----------------------------------------------------------------------
 #p M08HX scrf=(cpcm,solvent=water) geom=allcheck guess=read chkbasis I
 Op(3/174=1000000) IOp(3/175=0) IOp(3/176=1624700)
 ----------------------------------------------------------------------

 Structure from the checkpoint file:  "Fe_2_M08-HX.chk_solvated"
 -----
 Title
 -----
 Charge =  3 Multiplicity = 6

                         Standard orientation:
 ---------------------------------------------------------------------
 Center     Atomic      Atomic             Coordinates (Angstroms)
 Number     Number       Type             X           Y           Z
 ---------------------------------------------------------------------
      1         26           0       -0.000033    0.000018    0.000013
      2          8           0        1.264881    1.275988    0.959983
      3          1           0        1.795793    1.074787    1.749568
      4          8           0       -1.531772    0.623087    1.189443
      5          1           0       -2.451426    0.308591    1.156021
      6          8           0       -0.451446    1.460650   -1.346002
      7          1           0        0.010740    1.634091   -2.183933
      8          8           0       -1.265063   -1.275978   -0.959755
      9          1           0       -1.448699   -2.198660   -0.713245
     10          8           0        1.531790   -0.622958   -1.189416
     11          1           0        2.451300   -0.307729   -1.156466
     12          8           0        0.451675   -1.460821    1.345722
     13          1           0       -0.010418   -1.634731    2.183603
     14          1           0        1.169116   -2.112858    1.268594
     15          1           0       -1.478316    1.290401    1.894882
     16          1           0        1.448108    2.198870    0.713923
     17          1           0        1.478549   -1.290896   -1.894357
     18          1           0       -1.168697    2.112930   -1.269151
     19          1           0       -1.795695   -1.075004   -1.749585
 ---------------------------------------------------------------------

 SCF Done:  E(UM08HX) =  -1721.60511438     A.U. after   11 cycles

 The electronic state is 6-A.
 Alpha  occ. eigenvalues -- -258.19783 -30.96954 -26.86403 -26.86403 -26.86403
 Alpha  occ. eigenvalues --  -19.74766 -19.74766 -19.74765 -19.74765 -19.74765
 Alpha  occ. eigenvalues --  -19.74765  -4.09754  -2.86456  -2.86455  -2.86455
 Alpha  occ. eigenvalues --   -1.25275  -1.24158  -1.24158  -1.24156  -1.24002
 Alpha  occ. eigenvalues --   -1.24001  -0.81009  -0.81009  -0.78430  -0.78429
 Alpha  occ. eigenvalues --   -0.78429  -0.72326  -0.72326  -0.72325  -0.71219
 Alpha  occ. eigenvalues --   -0.71218  -0.71218  -0.70124  -0.63805  -0.63805
 Alpha  occ. eigenvalues --   -0.63803  -0.55545  -0.55544  -0.51700  -0.51697
 Alpha  occ. eigenvalues --   -0.51696  -0.51276  -0.51275  -0.51271
 Alpha virt. eigenvalues --   -0.06551  -0.02746  -0.02743  -0.02742   0.03473
 Alpha virt. eigenvalues --    0.04043   0.04049   0.07120   0.07126   0.07127
 Alpha virt. eigenvalues --    0.08319   0.08321   0.08323   0.13009   0.13019

  Beta  occ. eigenvalues -- -258.19879 -30.83255 -26.75133 -26.75133 -26.75133
  Beta  occ. eigenvalues --  -19.74447 -19.74447 -19.74447 -19.74447 -19.74446
  Beta  occ. eigenvalues --  -19.74446  -3.82903  -2.54835  -2.54834  -2.54833
  Beta  occ. eigenvalues --   -1.24656  -1.23521  -1.23521  -1.23519  -1.23278
  Beta  occ. eigenvalues --   -1.23277  -0.72177  -0.72175  -0.72174  -0.72089
  Beta  occ. eigenvalues --   -0.72088  -0.72088  -0.68788  -0.63698  -0.63697
  Beta  occ. eigenvalues --   -0.62392  -0.62391  -0.62389  -0.51516  -0.51514
  Beta  occ. eigenvalues --   -0.51509  -0.50601  -0.50596  -0.50596
  Beta virt. eigenvalues --   -0.17620  -0.17619  -0.17617  -0.13191  -0.13189
  Beta virt. eigenvalues --   -0.06503  -0.02795  -0.02793  -0.02792   0.03519
  Beta virt. eigenvalues --    0.04350   0.04356   0.07243   0.07249   0.07250

 Mulliken charges and spin densities:
               1          2
     1  Fe   1.184693   4.524251
     2  O   -0.643442   0.074752
     3  H    0.472968   0.002261
     4  O   -0.643138   0.074734
     5  H    0.472917   0.002261
     6  O   -0.643432   0.074828
     7  H    0.472954   0.002260
     8  O   -0.643435   0.074756
     9  H    0.472988   0.002260
    10  O   -0.643184   0.074724
    11  H    0.472947   0.002262
    12  O   -0.643442   0.074823
    13  H    0.472963   0.002261
    14  H    0.472916   0.002262
    15  H    0.472908   0.002260
    16  H    0.472990   0.002260
    17  H    0.472933   0.002262
    18  H    0.472927   0.002263
    19  H    0.472970   0.002261
 Sum of Mulliken charges =   3.00000   5.00000

 Dipole moment (field-independent basis, Debye):
    X=              0.0002    Y=             -0.0001    Z=             -0.0002  Tot=              0.0003
 Quadrupole moment (field-independent basis, Debye-Ang):
   XX=             -7.8188   YY=             -7.8117   ZZ=             -7.8533
   XY=             -0.0027   XZ=             -0.0043   YZ=              0.0016

 Normal termination of Gaussian 16 at Wed Mar  5 19:55:03 2025.
