 Gaussian 16, Revision C.02,

 ----------------------------------------------------------------------
 #p OLYP 6-31+G(2df,p) opt=(cartesian,calcall,maxcycles=500) freq scf=(
 maxcycles=500,xqc,maxconventional=50) IOp(3/174=1000000) IOp(3/175=176
 4000) IOp(3/176=806000)
 ----------------------------------------------------------------------

 -----
 Title
 -----
 Symbolic Z-matrix:
 Charge =  3 Multiplicity = 6

 SCF Done:  E(UO-LYP) =  -1721.05175287     A.U. after   18 cycles
 SCF Done:  E(UO-LYP) =  -1721.08331308     A.U. after   13 cycles
 SCF Done:  E(UO-LYP) =  -1721.13679443     A.U. after   15 cycles
 SCF Done:  E(UO-LYP) =  -1721.19773587     A.U. after   16 cycles
 SCF Done:  E(UO-LYP) =  -1721.22129461     A.U. after   17 cycles
 SCF Done:  E(UO-LYP) =  -1721.24507382     A.U. after   15 cycles
 SCF Done:  E(UO-LYP) =  -1721.27269898     A.U. after   17 cycles
 SCF Done:  E(UO-LYP) =  -1721.28100218     A.U. after   17 cycles
 SCF Done:  E(UO-LYP) =  -1721.29309325     A.U. after   16 cycles
 SCF Done:  E(UO-LYP) =  -1721.29051168     A.U. after   15 cycles
 SCF Done:  E(UO-LYP) =  -1721.31524084     A.U. after   15 cycles
 SCF Done:  E(UO-LYP) =  -1721.31623294     A.U. after   13 cycles
 SCF Done:  E(UO-LYP) =  -1721.31625837     A.U. after   11 cycles
 SCF Done:  E(UO-LYP) =  -1721.31647301     A.U. after   12 cycles
 SCF Done:  E(UO-LYP) =  -1721.31659301     A.U. after   12 cycles
 SCF Done:  E(UO-LYP) =  -1721.31659382     A.U. after   11 cycles
 SCF Done:  E(UO-LYP) =  -1721.31658162     A.U. after   11 cycles
 SCF Done:  E(UO-LYP) =  -1721.31660050     A.U. after   10 cycles
 Optimization completed.
    -- Stationary point found.
 Normal termination of Gaussian 16 at Wed Mar  5 21:18:43 2025.

 ----------------------------------------------------------------------
 #P Geom=AllCheck Guess=TCheck SCRF=Check Test GenChk UOLYP/6-31+G(2df,
 p) Freq
 ----------------------------------------------------------------------

 Structure from the checkpoint file:  "Fe_2_OLYP.chk"
 -----
 Title
 -----
 Charge =  3 Multiplicity = 6

 SCF Done:  E(UO-LYP) =  -1721.31660050     A.U. after    1 cycles

  Exact polarizability:      79.014      -0.001      79.011       0.001      -0.000      79.010
 Approx polarizability:     139.072      -0.002     139.061       0.003      -0.001     139.048

                      1                      2                      3
                      A                      A                      A
 Frequencies --    111.3251               112.0878               112.3615
 Red. masses --      4.4472                 4.4380                 4.4341
 Frc consts  --      0.0325                 0.0329                 0.0330
 IR Inten    --      0.3092                 0.2910                 0.2886

                      4                      5                      6
                      A                      A                      A
 Frequencies --    164.2802               164.5327               164.8678
 Red. masses --      5.1250                 5.1288                 5.1258
 Frc consts  --      0.0815                 0.0818                 0.0821
 IR Inten    --      0.0000                 0.0000                 0.0000

                      7                      8                      9
                      A                      A                      A
 Frequencies --    173.9180               174.2347               174.3743
 Red. masses --      5.5303                 5.5304                 5.5211
 Frc consts  --      0.0986                 0.0989                 0.0989
 IR Inten    --      0.0009                 0.0016                 0.0018

                     10                     11                     12
                      A                      A                      A
 Frequencies --    260.3435               260.6193               278.6350
 Red. masses --      1.0078                 1.0078                 5.8021
 Frc consts  --      0.0402                 0.0403                 0.2654
 IR Inten    --      0.0030                 0.0006                 0.0000

                     13                     14                     15
                      A                      A                      A
 Frequencies --    278.7712               328.7093               329.2036
 Red. masses --      5.8021                 1.0250                 1.0248
 Frc consts  --      0.2657                 0.0653                 0.0654
 IR Inten    --      0.0000                 0.0000                 0.0000

                     16                     17                     18
                      A                      A                      A
 Frequencies --    329.4845               344.7543               344.9409
 Red. masses --      1.0247                 5.4899                 5.4903
 Frc consts  --      0.0655                 0.3844                 0.3849
 IR Inten    --      0.0000                 0.4926                 0.4868

                     19                     20                     21
                      A                      A                      A
 Frequencies --    344.9805               356.7610               445.6763
 Red. masses --      5.4886                 6.0016                 1.2046
 Frc consts  --      0.3849                 0.4501                 0.1410
 IR Inten    --      0.4875                 0.0000               402.4872

                     22                     23                     24
                      A                      A                      A
 Frequencies --    445.9568               446.0394               452.0747
 Red. masses --      1.2050                 1.2042                 1.1183
 Frc consts  --      0.1412                 0.1412                 0.1347
 IR Inten    --    402.7004               403.1562                 0.0049

                     25                     26                     27
                      A                      A                      A
 Frequencies --    452.2730               452.4916               454.0154
 Red. masses --      1.1183                 1.1180                 1.0080
 Frc consts  --      0.1348                 0.1349                 0.1224
 IR Inten    --      0.0226                 0.0015                 0.3376

                     28                     29                     30
                      A                      A                      A
 Frequencies --    616.4994               616.6726               616.8516
 Red. masses --      1.1433                 1.1434                 1.1433
 Frc consts  --      0.2560                 0.2562                 0.2563
 IR Inten    --      0.0004                 0.0000                 0.0028

                     31                     32                     33
                      A                      A                      A
 Frequencies --    624.6614               624.7051               624.9901
 Red. masses --      1.1957                 1.1955                 1.1954
 Frc consts  --      0.2749                 0.2749                 0.2751
 IR Inten    --    148.6571               149.1905               149.1522

                     34                     35                     36
                      A                      A                      A
 Frequencies --   1626.6350              1626.7034              1626.7791
 Red. masses --      1.0910                 1.0910                 1.0910
 Frc consts  --      1.7009                 1.7010                 1.7012
 IR Inten    --    185.3997               185.3908               185.4042

                     37                     38                     39
                      A                      A                      A
 Frequencies --   1629.3604              1629.4315              1639.4291
 Red. masses --      1.0906                 1.0906                 1.0825
 Frc consts  --      1.7059                 1.7061                 1.7142
 IR Inten    --      0.0008                 0.0006                 0.0000

                     40                     41                     42
                      A                      A                      A
 Frequencies --   3606.3486              3606.4482              3606.4849
 Red. masses --      1.0442                 1.0442                 1.0442
 Frc consts  --      8.0014                 8.0019                 8.0020
 IR Inten    --    924.1107               922.4510               922.0317

                     43                     44                     45
                      A                      A                      A
 Frequencies --   3606.9464              3607.0232              3634.6521
 Red. masses --      1.0441                 1.0441                 1.0454
 Frc consts  --      8.0035                 8.0039                 8.1370
 IR Inten    --      1.7842                 4.2217                 0.0009

                     46                     47                     48
                      A                      A                      A
 Frequencies --   3698.7930              3698.8969              3698.9328
 Red. masses --      1.0850                 1.0850                 1.0850
 Frc consts  --      8.7454                 8.7459                 8.7461
 IR Inten    --      1.0887                 0.6020                 4.7374

                     49                     50                     51
                      A                      A                      A
 Frequencies --   3699.2582              3699.3612              3699.4052
 Red. masses --      1.0850                 1.0850                 1.0850
 Frc consts  --      8.7478                 8.7483                 8.7485
 IR Inten    --    490.5611               491.0150               487.3485

 - Thermochemistry -
 -------------------
 Temperature   298.150 Kelvin.  Pressure   1.00000 Atm.
 Atom     1 has atomic number 26 and mass  55.93494

 Molecular mass:   163.99833 amu.
 Principal axes and moments of inertia in atomic units:
                           1         2         3
     Eigenvalues --  1223.254711223.302361223.39683
           X            0.99724  -0.07261  -0.01529
           Y            0.07260   0.99736  -0.00087
           Z            0.01531  -0.00024   0.99988
 This molecule is an asymmetric top.
 Rotational symmetry number  1.
 Warning -- assumption of classical behavior for rotation
           may cause significant error
 Rotational temperatures (Kelvin)      0.07081     0.07080     0.07080
 Rotational constants (GHZ):           1.47536     1.47530     1.47519
 Zero-point vibrational energy     390718.2 (Joules/Mol)
                                   93.38389 (Kcal/Mol)
 Warning -- explicit consideration of  30 degrees of freedom as
           vibrations may cause significant error
 Vibrational temperatures:    160.17   161.27   161.66   236.36   236.73
          (Kelvin)            237.21   250.23   250.68   250.89   374.58
                              374.97   400.89   401.09   472.94   473.65
                              474.05   496.02   496.29   496.35   513.30
                              641.23   641.63   641.75   650.43   650.72
                              651.03   653.23   887.01   887.25   887.51
                              898.75   898.81   899.22  2340.36  2340.46
                             2340.57  2344.29  2344.39  2358.77  5188.73
                             5188.87  5188.93  5189.59  5189.70  5229.45
                             5321.74  5321.89  5321.94  5322.41  5322.56
                             5322.62

 Zero-point correction=                           0.148817 (Hartree/Particle)
 Thermal correction to Energy=                    0.164655
 Thermal correction to Enthalpy=                  0.165599
 Thermal correction to Gibbs Free Energy=         0.108051
 Sum of electronic and zero-point Energies=          -1721.167784
 Sum of electronic and thermal Energies=             -1721.151946
 Sum of electronic and thermal Enthalpies=           -1721.151002
 Sum of electronic and thermal Free Energies=        -1721.208549

                     E (Thermal)             CV                S
                      KCal/Mol        Cal/Mol-Kelvin    Cal/Mol-Kelvin
 Total                  103.322             56.889            121.120
 Electronic               0.000              0.000              3.561
 Translational            0.889              2.981             41.193
 Rotational               0.889              2.981             28.994
 Vibrational            101.545             50.928             47.372
 Vibration     1          0.607              1.940              3.246
 Vibration     2          0.607              1.939              3.232
 Vibration     3          0.607              1.939              3.228
 Vibration     4          0.623              1.886              2.500
 Vibration     5          0.623              1.886              2.497
 Vibration     6          0.623              1.886              2.493
 Vibration     7          0.627              1.875              2.393
 Vibration     8          0.627              1.874              2.389
 Vibration     9          0.627              1.874              2.388
 Vibration    10          0.668              1.745              1.659
 Vibration    11          0.669              1.745              1.658
 Vibration    12          0.679              1.713              1.542
 Vibration    13          0.679              1.713              1.541
 Vibration    14          0.712              1.618              1.266
 Vibration    15          0.712              1.617              1.264
 Vibration    16          0.712              1.617              1.263
 Vibration    17          0.723              1.586              1.190
 Vibration    18          0.723              1.586              1.189
 Vibration    19          0.723              1.585              1.189
 Vibration    20          0.732              1.561              1.136
 Vibration    21          0.805              1.370              0.809
 Vibration    22          0.805              1.370              0.808
 Vibration    23          0.805              1.370              0.808
 Vibration    24          0.811              1.356              0.790
 Vibration    25          0.811              1.356              0.789
 Vibration    26          0.811              1.355              0.788
 Vibration    27          0.812              1.352              0.784
 Vibration    28          0.976              0.997              0.422
 Vibration    29          0.976              0.997              0.422
 Vibration    30          0.977              0.996              0.422

 Optimization completed.
    -- Stationary point found.
 Normal termination of Gaussian 16 at Wed Mar  5 21:20:14 2025.
 Gaussian 16:  ES64L-G16RevC.02  7-Dec-2021

 ----------------------------------------------------------------------
 #p OLYP scrf=(cpcm,solvent=water) geom=allcheck guess=read chkbasis IO
 p(3/174=1000000) IOp(3/175=1764000) IOp(3/176=806000)
 ----------------------------------------------------------------------

 Structure from the checkpoint file:  "Fe_2_OLYP.chk_solvated"
 -----
 Title
 -----
 Charge =  3 Multiplicity = 6

                         Standard orientation:
 ---------------------------------------------------------------------
 Center     Atomic      Atomic             Coordinates (Angstroms)
 Number     Number       Type             X           Y           Z
 ---------------------------------------------------------------------
      1         26           0        0.000010    0.000015   -0.000013
      2          8           0       -1.861516    0.331868   -0.894410
      3          1           0       -2.035982    0.851824   -1.703024
      4          8           0       -0.250860    1.721791    1.160812
      5          1           0        0.376519    2.077301    1.820076
      6          8           0       -0.920693   -1.140532    1.492111
      7          1           0       -1.083188   -2.103797    1.473272
      8          8           0        1.861304   -0.332205    0.894721
      9          1           0        2.725472    0.002536    0.585231
     10          8           0        0.250999   -1.721521   -1.161171
     11          1           0       -0.376473   -2.077079   -1.820321
     12          8           0        0.920748    1.140575   -1.492047
     13          1           0        1.083249    2.103834   -1.473161
     14          1           0        1.271762    0.813708   -2.343267
     15          1           0       -1.018226    2.326505    1.149502
     16          1           0       -2.725524   -0.002946   -0.584533
     17          1           0        1.018512   -2.326045   -1.150144
     18          1           0       -1.271651   -0.813635    2.343347
     19          1           0        2.035408   -0.852409    1.703243
 ---------------------------------------------------------------------

 SCF Done:  E(UO-LYP) =  -1721.94985380     A.U. after   12 cycles

 The electronic state is 6-A.
 Alpha  occ. eigenvalues -- -254.92959 -29.88424 -25.82206 -25.82206 -25.82206
 Alpha  occ. eigenvalues --  -18.89894 -18.89893 -18.89892 -18.89892 -18.89891
 Alpha  occ. eigenvalues --  -18.89891  -3.61187  -2.41915  -2.41915  -2.41914
 Alpha  occ. eigenvalues --   -1.04390  -1.03683  -1.03680  -1.03680  -1.03531
 Alpha  occ. eigenvalues --   -1.03529  -0.57928  -0.57924  -0.57922  -0.57652
 Alpha  occ. eigenvalues --   -0.57648  -0.57646  -0.54506  -0.54505  -0.53779
 Alpha  occ. eigenvalues --   -0.48688  -0.48685  -0.48684  -0.47790  -0.47790
 Alpha  occ. eigenvalues --   -0.47788  -0.37912  -0.37910  -0.37284  -0.37282
 Alpha  occ. eigenvalues --   -0.37281  -0.36607  -0.36605  -0.36605
 Alpha virt. eigenvalues --   -0.09461  -0.05024  -0.05023  -0.05019  -0.00161
 Alpha virt. eigenvalues --   -0.00153   0.01991   0.04101   0.04102   0.04103
 Alpha virt. eigenvalues --    0.04295   0.04300   0.04303   0.07534   0.11102

  Beta  occ. eigenvalues -- -254.92877 -29.79786 -25.75849 -25.75849 -25.75849
  Beta  occ. eigenvalues --  -18.89606 -18.89605 -18.89604 -18.89604 -18.89603
  Beta  occ. eigenvalues --  -18.89603  -3.41901  -2.22783  -2.22783  -2.22782
  Beta  occ. eigenvalues --   -1.03670  -1.02967  -1.02964  -1.02964  -1.02793
  Beta  occ. eigenvalues --   -1.02791  -0.57338  -0.57334  -0.57332  -0.57256
  Beta  occ. eigenvalues --   -0.57252  -0.57250  -0.52644  -0.49228  -0.49226
  Beta  occ. eigenvalues --   -0.47805  -0.47802  -0.47801  -0.37243  -0.37241
  Beta  occ. eigenvalues --   -0.37240  -0.36214  -0.36212  -0.36211
  Beta virt. eigenvalues --   -0.28657  -0.28656  -0.28655  -0.24482  -0.24481
  Beta virt. eigenvalues --   -0.09026  -0.04860  -0.04859  -0.04856   0.00115
  Beta virt. eigenvalues --    0.00123   0.02665   0.04398   0.04400   0.04401

 Mulliken charges and spin densities:
               1          2
     1  Fe   1.433853   4.226649
     2  O   -0.589377   0.125425
     3  H    0.425157   0.001730
     4  O   -0.589311   0.125419
     5  H    0.425202   0.001730
     6  O   -0.589234   0.125426
     7  H    0.425119   0.001732
     8  O   -0.589373   0.125428
     9  H    0.425196   0.001729
    10  O   -0.589305   0.125422
    11  H    0.425203   0.001730
    12  O   -0.589191   0.125467
    13  H    0.425117   0.001730
    14  H    0.425136   0.001729
    15  H    0.425166   0.001733
    16  H    0.425192   0.001729
    17  H    0.425164   0.001732
    18  H    0.425137   0.001731
    19  H    0.425148   0.001728
 Sum of Mulliken charges =   3.00000   5.00000

 Dipole moment (field-independent basis, Debye):
    X=              0.0000    Y=             -0.0000    Z=              0.0001  Tot=              0.0001
 Quadrupole moment (field-independent basis, Debye-Ang):
   XX=             -6.1616   YY=             -6.1673   ZZ=             -6.1508
   XY=             -0.0073   XZ=             -0.0074   YZ=              0.0064

 Normal termination of Gaussian 16 at Wed Mar  5 21:21:01 2025.
