 Gaussian 16, Revision C.02,

 ----------------------------------------------------------------------
 #p X3LYP 6-31+G(2df,p) opt=(cartesian,calcall,maxcycles=500,loose) fre
 q scf=(maxcycles=500,xqc,maxconventional=50) IOp(3/174=1000000) IOp(3/
 175=299000) IOp(3/176=1000000)
 ----------------------------------------------------------------------

 -----
 Title
 -----
 Symbolic Z-matrix:
 Charge =  3 Multiplicity = 6

 SCF Done:  E(UX3LYP) =  -1720.71774005     A.U. after   18 cycles
 SCF Done:  E(UX3LYP) =  -1720.74813379     A.U. after   12 cycles
 SCF Done:  E(UX3LYP) =  -1720.79960993     A.U. after   14 cycles
 SCF Done:  E(UX3LYP) =  -1720.85609852     A.U. after   15 cycles
 SCF Done:  E(UX3LYP) =  -1720.87064031     A.U. after   15 cycles
 SCF Done:  E(UX3LYP) =  -1720.90910836     A.U. after   14 cycles
 SCF Done:  E(UX3LYP) =  -1720.93263216     A.U. after   14 cycles
 SCF Done:  E(UX3LYP) =  -1720.94572092     A.U. after   16 cycles
 SCF Done:  E(UX3LYP) =  -1720.95239017     A.U. after   14 cycles
 SCF Done:  E(UX3LYP) =  -1720.94986174     A.U. after   15 cycles
 SCF Done:  E(UX3LYP) =  -1720.96200695     A.U. after   13 cycles
 SCF Done:  E(UX3LYP) =  -1720.95687999     A.U. after   15 cycles
 SCF Done:  E(UX3LYP) =  -1720.96502156     A.U. after   14 cycles
 SCF Done:  E(UX3LYP) =  -1720.96530582     A.U. after   13 cycles
 SCF Done:  E(UX3LYP) =  -1720.96656082     A.U. after   13 cycles
 SCF Done:  E(UX3LYP) =  -1720.96721280     A.U. after   13 cycles
 SCF Done:  E(UX3LYP) =  -1720.96742532     A.U. after   12 cycles
 SCF Done:  E(UX3LYP) =  -1720.96743459     A.U. after   11 cycles
 Optimization completed.
    -- Stationary point found.
 Normal termination of Gaussian 16 at Wed Mar  5 21:41:55 2025.

 ----------------------------------------------------------------------
 #P Geom=AllCheck Guess=TCheck SCRF=Check Test GenChk UX3LYP/6-31+G(2df
 ,p) Freq
 ----------------------------------------------------------------------

 Structure from the checkpoint file:  "Fe_2_X3LYP.chk"
 -----
 Title
 -----
 Charge =  3 Multiplicity = 6

 SCF Done:  E(UX3LYP) =  -1720.96743459     A.U. after    1 cycles

  Exact polarizability:      63.795      -0.002      63.791       0.000      -0.002      63.785
 Approx polarizability:      79.686      -0.001      79.680      -0.000       0.001      79.678

                      1                      2                      3
                      A                      A                      A
 Frequencies --    113.0891               114.0160               114.4781
 Red. masses --      4.4331                 4.4286                 4.4309
 Frc consts  --      0.0334                 0.0339                 0.0342
 IR Inten    --      0.8696                 0.8396                 0.8527

                      4                      5                      6
                      A                      A                      A
 Frequencies --    170.5063               170.6008               171.1720
 Red. masses --      4.8722                 4.8679                 4.8699
 Frc consts  --      0.0835                 0.0835                 0.0841
 IR Inten    --      0.0000                 0.0000                 0.0000

                      7                      8                      9
                      A                      A                      A
 Frequencies --    178.0562               178.2361               178.3029
 Red. masses --      5.3680                 5.3619                 5.3678
 Frc consts  --      0.1003                 0.1004                 0.1005
 IR Inten    --      0.0574                 0.0555                 0.0555

                     10                     11                     12
                      A                      A                      A
 Frequencies --    262.7272               263.5828               333.4893
 Red. masses --      1.0078                 1.0078                 5.7848
 Frc consts  --      0.0410                 0.0413                 0.3791
 IR Inten    --      0.0007                 0.0000                 0.0000

                     13                     14                     15
                      A                      A                      A
 Frequencies --    333.5823               340.1261               340.3716
 Red. masses --      5.7894                 1.0219                 1.0219
 Frc consts  --      0.3796                 0.0697                 0.0698
 IR Inten    --      0.0000                 0.0000                 0.0002

                     16                     17                     18
                      A                      A                      A
 Frequencies --    340.7969               408.2964               408.4226
 Red. masses --      1.0218                 5.0959                 5.0952
 Frc consts  --      0.0699                 0.5005                 0.5008
 IR Inten    --      0.0002                 0.4141                 0.4136

                     19                     20                     21
                      A                      A                      A
 Frequencies --    408.5200               425.6129               475.7820
 Red. masses --      5.1061                 6.0308                 1.0078
 Frc consts  --      0.5021                 0.6437                 0.1344
 IR Inten    --      0.3837                 0.0000                 0.0036

                     22                     23                     24
                      A                      A                      A
 Frequencies --    497.9525               498.1212               498.4322
 Red. masses --      1.1267                 1.1269                 1.1269
 Frc consts  --      0.1646                 0.1647                 0.1650
 IR Inten    --      0.0038                 0.0061                 0.0043

                     25                     26                     27
                      A                      A                      A
 Frequencies --    512.4109               512.7050               512.9314
 Red. masses --      1.2050                 1.2048                 1.2046
 Frc consts  --      0.1864                 0.1866                 0.1867
 IR Inten    --    428.2371               428.4062               429.0010

                     28                     29                     30
                      A                      A                      A
 Frequencies --    644.6449               644.7276               644.7695
 Red. masses --      1.1529                 1.1529                 1.1527
 Frc consts  --      0.2823                 0.2824                 0.2824
 IR Inten    --      0.0053                 0.0031                 0.0063

                     31                     32                     33
                      A                      A                      A
 Frequencies --    657.1442               657.2955               657.3399
 Red. masses --      1.2236                 1.2234                 1.2233
 Frc consts  --      0.3113                 0.3114                 0.3114
 IR Inten    --    258.2325               258.5800               258.6795

                     34                     35                     36
                      A                      A                      A
 Frequencies --   1645.9641              1645.9941              1646.0136
 Red. masses --      1.0917                 1.0917                 1.0916
 Frc consts  --      1.7425                 1.7426                 1.7426
 IR Inten    --    239.3669               239.2470               239.1668

                     37                     38                     39
                      A                      A                      A
 Frequencies --   1648.4277              1648.5017              1658.6091
 Red. masses --      1.0917                 1.0917                 1.0813
 Frc consts  --      1.7478                 1.7480                 1.7527
 IR Inten    --      0.0018                 0.0035                 0.0001

                     40                     41                     42
                      A                      A                      A
 Frequencies --   3637.4967              3637.5985              3638.9016
 Red. masses --      1.0436                 1.0436                 1.0437
 Frc consts  --      8.1352                 8.1357                 8.1429
 IR Inten    --      2.5482                 0.9917               761.1344

                     43                     44                     45
                      A                      A                      A
 Frequencies --   3638.9862              3639.0784              3664.9175
 Red. masses --      1.0437                 1.0437                 1.0456
 Frc consts  --      8.1433                 8.1437                 8.2745
 IR Inten    --    762.4118               762.9925                 0.0080

                     46                     47                     48
                      A                      A                      A
 Frequencies --   3717.5764              3717.6600              3717.7536
 Red. masses --      1.0856                 1.0856                 1.0856
 Frc consts  --      8.8398                 8.8402                 8.8406
 IR Inten    --      5.2538                 4.1001                 0.9879

                     49                     50                     51
                      A                      A                      A
 Frequencies --   3718.3672              3718.4471              3718.5323
 Red. masses --      1.0857                 1.0857                 1.0857
 Frc consts  --      8.8442                 8.8446                 8.8449
 IR Inten    --    581.5903               582.3506               585.7860

 - Thermochemistry -
 -------------------
 Temperature   298.150 Kelvin.  Pressure   1.00000 Atm.
 Atom     1 has atomic number 26 and mass  55.93494

 Molecular mass:   163.99833 amu.
 Principal axes and moments of inertia in atomic units:
                           1         2         3
     Eigenvalues --  1170.520921170.641121170.73293
           X            0.99996  -0.00693  -0.00633
           Y            0.00707   0.99974   0.02179
           Z            0.00618  -0.02184   0.99974
 This molecule is an asymmetric top.
 Rotational symmetry number  1.
 Warning -- assumption of classical behavior for rotation
           may cause significant error
 Rotational temperatures (Kelvin)      0.07400     0.07399     0.07398
 Rotational constants (GHZ):           1.54183     1.54167     1.54155
 Zero-point vibrational energy     399116.5 (Joules/Mol)
                                   95.39113 (Kcal/Mol)
 Warning -- explicit consideration of  27 degrees of freedom as
           vibrations may cause significant error
 Vibrational temperatures:    162.71   164.04   164.71   245.32   245.46
          (Kelvin)            246.28   256.18   256.44   256.54   378.01
                              379.24   479.82   479.95   489.37   489.72
                              490.33   587.45   587.63   587.77   612.36
                              684.54   716.44   716.69   717.13   737.24
                              737.67   737.99   927.50   927.62   927.68
                              945.48   945.70   945.77  2368.18  2368.22
                             2368.25  2371.72  2371.83  2386.37  5233.55
                             5233.69  5235.57  5235.69  5235.82  5273.00
                             5348.76  5348.88  5349.02  5349.90  5350.02
                             5350.14

 Zero-point correction=                           0.152015 (Hartree/Particle)
 Thermal correction to Energy=                    0.166969
 Thermal correction to Enthalpy=                  0.167914
 Thermal correction to Gibbs Free Energy=         0.112104
 Sum of electronic and zero-point Energies=          -1720.815419
 Sum of electronic and thermal Energies=             -1720.800465
 Sum of electronic and thermal Enthalpies=           -1720.799521
 Sum of electronic and thermal Free Energies=        -1720.855331

                     E (Thermal)             CV                S
                      KCal/Mol        Cal/Mol-Kelvin    Cal/Mol-Kelvin
 Total                  104.775             54.823            117.461
 Electronic               0.000              0.000              3.561
 Translational            0.889              2.981             41.193
 Rotational               0.889              2.981             28.863
 Vibrational            102.997             48.861             43.845
 Vibration     1          0.607              1.939              3.215
 Vibration     2          0.607              1.938              3.199
 Vibration     3          0.607              1.937              3.192
 Vibration     4          0.626              1.879              2.430
 Vibration     5          0.626              1.879              2.429
 Vibration     6          0.626              1.878              2.423
 Vibration     7          0.628              1.869              2.349
 Vibration     8          0.629              1.869              2.347
 Vibration     9          0.629              1.869              2.346
 Vibration    10          0.670              1.741              1.644
 Vibration    11          0.670              1.740              1.638
 Vibration    12          0.715              1.609              1.243
 Vibration    13          0.715              1.608              1.243
 Vibration    14          0.720              1.595              1.212
 Vibration    15          0.720              1.595              1.210
 Vibration    16          0.720              1.594              1.208
 Vibration    17          0.773              1.452              0.933
 Vibration    18          0.773              1.452              0.932
 Vibration    19          0.773              1.452              0.932
 Vibration    20          0.787              1.415              0.873
 Vibration    21          0.832              1.304              0.722
 Vibration    22          0.853              1.255              0.663
 Vibration    23          0.854              1.254              0.663
 Vibration    24          0.854              1.253              0.662
 Vibration    25          0.867              1.222              0.628
 Vibration    26          0.868              1.222              0.627
 Vibration    27          0.868              1.221              0.627

 Optimization completed.
    -- Stationary point found.
 Normal termination of Gaussian 16 at Wed Mar  5 21:43:51 2025.
 Gaussian 16:  ES64L-G16RevC.02  7-Dec-2021

 ----------------------------------------------------------------------
 #p X3LYP scrf=(cpcm,solvent=water) geom=allcheck guess=read chkbasis I
 Op(3/174=1000000) IOp(3/175=299000) IOp(3/176=1000000)
 ----------------------------------------------------------------------

 Structure from the checkpoint file:  "Fe_2_X3LYP.chk_solvated"
 -----
 Title
 -----
 Charge =  3 Multiplicity = 6

                         Standard orientation:
 ---------------------------------------------------------------------
 Center     Atomic      Atomic             Coordinates (Angstroms)
 Number     Number       Type             X           Y           Z
 ---------------------------------------------------------------------
      1         26           0        0.000039    0.000023   -0.000022
      2          8           0       -1.430455    0.134367   -1.454133
      3          1           0       -2.354136   -0.174220   -1.387450
      4          8           0        0.560211   -1.829392   -0.719822
      5          1           0        1.268987   -2.398866   -0.364591
      6          8           0        1.349115    0.902032   -1.243026
      7          1           0        1.515536    1.860922   -1.318499
      8          8           0        1.430168   -0.134451    1.454418
      9          1           0        1.316480   -0.519311    2.344265
     10          8           0       -0.560036    1.829515    0.719626
     11          1           0       -1.268443    2.399208    0.364020
     12          8           0       -1.349072   -0.902115    1.242955
     13          1           0       -1.515483   -1.861008    1.318344
     14          1           0       -1.946451   -0.454232    1.871752
     15          1           0        0.168870   -2.295975   -1.482724
     16          1           0       -1.317008    0.518643   -2.344297
     17          1           0       -0.169087    2.295896    1.482884
     18          1           0        1.946531    0.454069   -1.871738
     19          1           0        2.353743    0.174630    1.388468
 ---------------------------------------------------------------------

 SCF Done:  E(UX3LYP) =  -1721.60493579     A.U. after   11 cycles

 The electronic state is 6-A.
 Alpha  occ. eigenvalues -- -256.48281 -30.42357 -26.26966 -26.26965 -26.26965
 Alpha  occ. eigenvalues --  -19.30328 -19.30328 -19.30327 -19.30327 -19.30324
 Alpha  occ. eigenvalues --  -19.30324  -3.85236  -2.62024  -2.62024  -2.62023
 Alpha  occ. eigenvalues --   -1.14397  -1.13390  -1.13389  -1.13385  -1.13208
 Alpha  occ. eigenvalues --   -1.13205  -0.65719  -0.65718  -0.65321  -0.65318
 Alpha  occ. eigenvalues --   -0.65315  -0.64331  -0.64329  -0.64325  -0.61769
 Alpha  occ. eigenvalues --   -0.59401  -0.59400  -0.59399  -0.55758  -0.55757
 Alpha  occ. eigenvalues --   -0.55754  -0.45593  -0.45591  -0.44145  -0.44143
 Alpha  occ. eigenvalues --   -0.44140  -0.43526  -0.43525  -0.43522
 Alpha virt. eigenvalues --   -0.06909  -0.02263  -0.02262  -0.02260   0.02991
 Alpha virt. eigenvalues --    0.02992   0.03329   0.06992   0.06992   0.06996
 Alpha virt. eigenvalues --    0.07363   0.07368   0.07369   0.11306   0.13127

  Beta  occ. eigenvalues -- -256.48146 -30.32810 -26.19001 -26.19001 -26.19001
  Beta  occ. eigenvalues --  -19.29982 -19.29982 -19.29982 -19.29981 -19.29978
  Beta  occ. eigenvalues --  -19.29978  -3.62031  -2.37441  -2.37441  -2.37440
  Beta  occ. eigenvalues --   -1.13668  -1.12655  -1.12654  -1.12650  -1.12437
  Beta  occ. eigenvalues --   -1.12434  -0.64104  -0.64101  -0.64097  -0.63994
  Beta  occ. eigenvalues --   -0.63992  -0.63988  -0.60450  -0.56264  -0.56262
  Beta  occ. eigenvalues --   -0.54488  -0.54487  -0.54483  -0.43946  -0.43944
  Beta  occ. eigenvalues --   -0.43941  -0.42866  -0.42865  -0.42861
  Beta virt. eigenvalues --   -0.25005  -0.25003  -0.25002  -0.20315  -0.20314
  Beta virt. eigenvalues --   -0.06544  -0.02107  -0.02106  -0.02104   0.03403
  Beta virt. eigenvalues --    0.03404   0.03593   0.07310   0.07310   0.07314

 Mulliken charges and spin densities:
               1          2
     1  Fe   1.422764   4.387540
     2  O   -0.616554   0.096283
     3  H    0.439694   0.002887
     4  O   -0.616505   0.096329
     5  H    0.439731   0.002888
     6  O   -0.616592   0.096303
     7  H    0.439762   0.002887
     8  O   -0.616553   0.096280
     9  H    0.439701   0.002889
    10  O   -0.616500   0.096338
    11  H    0.439729   0.002887
    12  O   -0.616644   0.096268
    13  H    0.439759   0.002887
    14  H    0.439705   0.002889
    15  H    0.439681   0.002888
    16  H    0.439722   0.002891
    17  H    0.439691   0.002889
    18  H    0.439707   0.002888
    19  H    0.439704   0.002889
 Sum of Mulliken charges =   3.00000   5.00000

 Dipole moment (field-independent basis, Debye):
    X=             -0.0002    Y=              0.0000    Z=              0.0004  Tot=              0.0005
 Quadrupole moment (field-independent basis, Debye-Ang):
   XX=             -7.3318   YY=             -7.3349   ZZ=             -7.3310
   XY=              0.0031   XZ=             -0.0008   YZ=              0.0042

 Normal termination of Gaussian 16 at Wed Mar  5 21:44:12 2025.
