 Gaussian 16, Revision C.02,

 ----------------------------------------------------------------------
 #p O3LYP 6-31+G(2df,p) opt=(cartesian,calcall,maxcycles=500,loose) fre
 q scf=(maxcycles=500,xqc,maxconventional=50) IOp(3/174=1000000) IOp(3/
 175=1805800) IOp(3/176=1406000)
 ----------------------------------------------------------------------

 -----
 Title
 -----
 Symbolic Z-matrix:
 Charge =  3 Multiplicity = 6

 SCF Done:  E(UO3LYP) =  -1720.95185959     A.U. after   16 cycles
 SCF Done:  E(UO3LYP) =  -1720.98239804     A.U. after   13 cycles
 SCF Done:  E(UO3LYP) =  -1721.03413855     A.U. after   16 cycles
 SCF Done:  E(UO3LYP) =  -1721.09333139     A.U. after   16 cycles
 SCF Done:  E(UO3LYP) =  -1721.11658499     A.U. after   17 cycles
 SCF Done:  E(UO3LYP) =  -1721.15147325     A.U. after   14 cycles
 SCF Done:  E(UO3LYP) =  -1721.17644834     A.U. after   16 cycles
 SCF Done:  E(UO3LYP) =  -1721.17253247     A.U. after   15 cycles
 SCF Done:  E(UO3LYP) =  -1721.18367955     A.U. after   14 cycles
 SCF Done:  E(UO3LYP) =  -1721.18698432     A.U. after   14 cycles
 SCF Done:  E(UO3LYP) =  -1721.20127993     A.U. after   14 cycles
 SCF Done:  E(UO3LYP) =  -1721.19543635     A.U. after   14 cycles
 SCF Done:  E(UO3LYP) =  -1721.20278851     A.U. after   14 cycles
 SCF Done:  E(UO3LYP) =  -1721.20238775     A.U. after   14 cycles
 SCF Done:  E(UO3LYP) =  -1721.20380462     A.U. after   13 cycles
 SCF Done:  E(UO3LYP) =  -1721.20421645     A.U. after   12 cycles
 SCF Done:  E(UO3LYP) =  -1721.20425489     A.U. after   12 cycles
 SCF Done:  E(UO3LYP) =  -1721.20426192     A.U. after   11 cycles
 Optimization completed.
    -- Stationary point found.
 Normal termination of Gaussian 16 at Wed Mar  5 20:51:19 2025.

 ----------------------------------------------------------------------
 #P Geom=AllCheck Guess=TCheck SCRF=Check Test GenChk UO3LYP/6-31+G(2df
 ,p) Freq
 ----------------------------------------------------------------------

 Structure from the checkpoint file:  "Fe_2_O3LYP.chk"
 -----
 Title
 -----
 Charge =  3 Multiplicity = 6

 SCF Done:  E(UO3LYP) =  -1721.20426192     A.U. after    1 cycles

  Exact polarizability:      69.316       0.001      69.311       0.007      -0.000      69.295
 Approx polarizability:      95.181      -0.001      95.164       0.011       0.000      95.148

                      1                      2                      3
                      A                      A                      A
 Frequencies --    113.7279               114.1952               114.6076
 Red. masses --      4.4684                 4.4666                 4.4657
 Frc consts  --      0.0341                 0.0343                 0.0346
 IR Inten    --      0.5433                 0.5363                 0.5427

                      4                      5                      6
                      A                      A                      A
 Frequencies --    169.5723               169.6598               170.0291
 Red. masses --      5.0668                 5.0688                 5.0678
 Frc consts  --      0.0858                 0.0860                 0.0863
 IR Inten    --      0.0002                 0.0002                 0.0002

                      7                      8                      9
                      A                      A                      A
 Frequencies --    177.9015               178.0796               178.3089
 Red. masses --      5.4670                 5.4683                 5.4671
 Frc consts  --      0.1019                 0.1022                 0.1024
 IR Inten    --      0.0391                 0.0377                 0.0395

                     10                     11                     12
                      A                      A                      A
 Frequencies --    256.4292               258.6689               305.1988
 Red. masses --      1.0079                 1.0078                 5.7952
 Frc consts  --      0.0390                 0.0397                 0.3180
 IR Inten    --      0.0053                 0.0005                 0.0001

                     13                     14                     15
                      A                      A                      A
 Frequencies --    305.5298               329.8100               331.8692
 Red. masses --      5.7953                 1.0241                 1.0244
 Frc consts  --      0.3187                 0.0656                 0.0665
 IR Inten    --      0.0000                 0.0124                 0.0016

                     16                     17                     18
                      A                      A                      A
 Frequencies --    332.0611               373.5015               373.7416
 Red. masses --      1.0241                 5.1038                 5.0958
 Frc consts  --      0.0665                 0.4195                 0.4194
 IR Inten    --      0.0026                 0.3632                 0.3790

                     19                     20                     21
                      A                      A                      A
 Frequencies --    373.9113               390.8904               462.0525
 Red. masses --      5.0799                 6.0184                 1.0091
 Frc consts  --      0.4185                 0.5418                 0.1269
 IR Inten    --      0.4098                 0.0002                 1.2660

                     22                     23                     24
                      A                      A                      A
 Frequencies --    465.5637               466.7339               466.8720
 Red. masses --      1.1215                 1.1183                 1.1178
 Frc consts  --      0.1432                 0.1435                 0.1436
 IR Inten    --     18.2132                 1.6132                 0.2619

                     25                     26                     27
                      A                      A                      A
 Frequencies --    472.3384               472.9277               473.0143
 Red. masses --      1.2118                 1.2137                 1.2144
 Frc consts  --      0.1593                 0.1599                 0.1601
 IR Inten    --    415.9649               428.5440               433.1535

                     28                     29                     30
                      A                      A                      A
 Frequencies --    634.9532               635.6340               635.8702
 Red. masses --      1.1485                 1.1478                 1.1478
 Frc consts  --      0.2728                 0.2732                 0.2734
 IR Inten    --      2.3475                 0.0490                 0.0244

                     31                     32                     33
                      A                      A                      A
 Frequencies --    646.8053               647.3466               647.4380
 Red. masses --      1.2055                 1.2058                 1.2059
 Frc consts  --      0.2971                 0.2977                 0.2978
 IR Inten    --    194.6321               196.5459               196.1448

                     34                     35                     36
                      A                      A                      A
 Frequencies --   1647.4158              1647.4487              1647.4835
 Red. masses --      1.0912                 1.0912                 1.0912
 Frc consts  --      1.7449                 1.7450                 1.7451
 IR Inten    --    206.8545               206.7017               206.3006

                     37                     38                     39
                      A                      A                      A
 Frequencies --   1649.9159              1649.9388              1660.1074
 Red. masses --      1.0911                 1.0911                 1.0817
 Frc consts  --      1.7500                 1.7501                 1.7564
 IR Inten    --      0.0056                 0.6937                 0.0132

                     40                     41                     42
                      A                      A                      A
 Frequencies --   3665.5427              3665.6891              3666.4299
 Red. masses --      1.0439                 1.0439                 1.0440
 Frc consts  --      8.2639                 8.2649                 8.2689
 IR Inten    --     22.5044               236.3158               821.6875

                     43                     44                     45
                      A                      A                      A
 Frequencies --   3666.4588              3668.7760              3693.6195
 Red. masses --      1.0440                 1.0440                 1.0456
 Frc consts  --      8.2691                 8.2794                 8.4048
 IR Inten    --    804.0374               592.1722                 1.4264

                     46                     47                     48
                      A                      A                      A
 Frequencies --   3754.0649              3754.0725              3754.1707
 Red. masses --      1.0852                 1.0852                 1.0852
 Frc consts  --      9.0108                 9.0108                 9.0114
 IR Inten    --     31.6535                23.5824               223.5936

                     49                     50                     51
                      A                      A                      A
 Frequencies --   3754.7102              3754.7337              3757.5904
 Red. masses --      1.0852                 1.0852                 1.0852
 Frc consts  --      9.0142                 9.0143                 9.0277
 IR Inten    --    515.1215               508.2543               314.9068

 - Thermochemistry -
 -------------------
 Temperature   298.150 Kelvin.  Pressure   1.00000 Atm.
 Atom     1 has atomic number 26 and mass  55.93494

 Molecular mass:   163.99833 amu.
 Principal axes and moments of inertia in atomic units:
                           1         2         3
     Eigenvalues --  1193.951881194.119181194.35804
           X            0.99925  -0.03555   0.01550
           Y            0.03504   0.99886   0.03227
           Z           -0.01663  -0.03171   0.99936
 This molecule is an asymmetric top.
 Rotational symmetry number  1.
 Warning -- assumption of classical behavior for rotation
           may cause significant error
 Rotational temperatures (Kelvin)      0.07254     0.07253     0.07252
 Rotational constants (GHZ):           1.51157     1.51136     1.51106
 Zero-point vibrational energy     398376.9 (Joules/Mol)
                                   95.21436 (Kcal/Mol)
 Warning -- explicit consideration of  27 degrees of freedom as
           vibrations may cause significant error
 Vibrational temperatures:    163.63   164.30   164.89   243.98   244.10
          (Kelvin)            244.63   255.96   256.22   256.55   368.94
                              372.17   439.11   439.59   474.52   477.49
                              477.76   537.39   537.73   537.98   562.40
                              664.79   669.84   671.53   671.72   679.59
                              680.44   680.56   913.56   914.54   914.88
                              930.61   931.39   931.52  2370.26  2370.31
                             2370.36  2373.86  2373.89  2388.52  5273.90
                             5274.11  5275.17  5275.22  5278.55  5314.29
                             5401.26  5401.27  5401.41  5402.19  5402.22
                             5406.33

 Zero-point correction=                           0.151734 (Hartree/Particle)
 Thermal correction to Energy=                    0.167146
 Thermal correction to Enthalpy=                  0.168090
 Thermal correction to Gibbs Free Energy=         0.111434
 Sum of electronic and zero-point Energies=          -1721.052528
 Sum of electronic and thermal Energies=             -1721.037116
 Sum of electronic and thermal Enthalpies=           -1721.036172
 Sum of electronic and thermal Free Energies=        -1721.092828

                     E (Thermal)             CV                S
                      KCal/Mol        Cal/Mol-Kelvin    Cal/Mol-Kelvin
 Total                  104.885             55.932            119.242
 Electronic               0.000              0.000              3.561
 Translational            0.889              2.981             41.193
 Rotational               0.889              2.981             28.922
 Vibrational            103.108             49.970             45.566
 Vibration     1          0.607              1.938              3.204
 Vibration     2          0.607              1.938              3.196
 Vibration     3          0.608              1.937              3.189
 Vibration     4          0.625              1.880              2.440
 Vibration     5          0.625              1.880              2.439
 Vibration     6          0.625              1.879              2.435
 Vibration     7          0.628              1.870              2.350
 Vibration     8          0.629              1.869              2.348
 Vibration     9          0.629              1.869              2.346
 Vibration    10          0.666              1.752              1.686
 Vibration    11          0.667              1.748              1.671
 Vibration    12          0.696              1.664              1.388
 Vibration    13          0.696              1.663              1.386
 Vibration    14          0.713              1.616              1.261
 Vibration    15          0.714              1.612              1.251
 Vibration    16          0.714              1.611              1.250
 Vibration    17          0.745              1.527              1.065
 Vibration    18          0.745              1.526              1.064
 Vibration    19          0.745              1.526              1.064
 Vibration    20          0.759              1.490              0.997
 Vibration    21          0.820              1.334              0.760
 Vibration    22          0.823              1.326              0.750
 Vibration    23          0.824              1.324              0.747
 Vibration    24          0.824              1.324              0.746
 Vibration    25          0.829              1.311              0.731
 Vibration    26          0.830              1.310              0.729
 Vibration    27          0.830              1.310              0.729

 Optimization completed.
    -- Stationary point found.
 Normal termination of Gaussian 16 at Wed Mar  5 20:53:12 2025.
 Gaussian 16:  ES64L-G16RevC.02  7-Dec-2021

 ----------------------------------------------------------------------
 #p O3LYP scrf=(cpcm,solvent=water) geom=allcheck guess=read chkbasis I
 Op(3/174=1000000) IOp(3/175=1805800) IOp(3/176=1406000)
 ----------------------------------------------------------------------

 Structure from the checkpoint file:  "Fe_2_O3LYP.chk_solvated"
 -----
 Title
 -----
 Charge =  3 Multiplicity = 6

                         Standard orientation:
 ---------------------------------------------------------------------
 Center     Atomic      Atomic             Coordinates (Angstroms)
 Number     Number       Type             X           Y           Z
 ---------------------------------------------------------------------
      1         26           0        0.000155    0.000031    0.000092
      2          8           0       -1.441883    0.064211    1.478055
      3          1           0       -1.459615   -0.465573    2.293766
      4          8           0       -1.075001   -1.463970   -0.984221
      5          1           0       -0.831776   -1.898075   -1.820337
      6          8           0       -1.017455    1.456401   -1.054283
      7          1           0       -0.896896    2.418754   -0.976548
      8          8           0        1.441261   -0.062042   -1.478742
      9          1           0        2.229873   -0.631684   -1.495818
     10          8           0        1.075357    1.462796    0.985993
     11          1           0        0.830289    1.898322    1.820819
     12          8           0        1.017339   -1.457498    1.052932
     13          1           0        0.893966   -2.419536    0.976034
     14          1           0        1.710735   -1.313198    1.720033
     15          1           0       -1.921294   -1.850742   -0.699829
     16          1           0       -2.231943    0.631333    1.491819
     17          1           0        1.923761    1.846937    0.704479
     18          1           0       -1.708553    1.310543   -1.723446
     19          1           0        1.460474    0.472932   -2.291230
 ---------------------------------------------------------------------

 SCF Done:  E(UO3LYP) =  -1721.84029463     A.U. after   11 cycles

 The electronic state is 6-A.
 Alpha  occ. eigenvalues -- -255.70681 -30.19273 -26.08044 -26.08044 -26.08043
 Alpha  occ. eigenvalues --  -19.10447 -19.10445 -19.10441 -19.10438 -19.10437
 Alpha  occ. eigenvalues --  -19.10433  -3.75753  -2.54249  -2.54248  -2.54247
 Alpha  occ. eigenvalues --   -1.10306  -1.09469  -1.09463  -1.09462  -1.09307
 Alpha  occ. eigenvalues --   -1.09302  -0.62104  -0.62098  -0.62095  -0.61505
 Alpha  occ. eigenvalues --   -0.61500  -0.61497  -0.61240  -0.61238  -0.58249
 Alpha  occ. eigenvalues --   -0.55307  -0.55306  -0.55304  -0.52708  -0.52703
 Alpha  occ. eigenvalues --   -0.52701  -0.42852  -0.42848  -0.41038  -0.41029
 Alpha  occ. eigenvalues --   -0.41026  -0.40462  -0.40454  -0.40450
 Alpha virt. eigenvalues --   -0.08059  -0.03628  -0.03622  -0.03618   0.01581
 Alpha virt. eigenvalues --    0.01588   0.02808   0.05735   0.05737   0.05743
 Alpha virt. eigenvalues --    0.05894   0.05897   0.05906   0.09353   0.12297

  Beta  occ. eigenvalues -- -255.70569 -30.09713 -26.00577 -26.00577 -26.00576
  Beta  occ. eigenvalues --  -19.10145 -19.10144 -19.10139 -19.10136 -19.10135
  Beta  occ. eigenvalues --  -19.10131  -3.53751  -2.31454  -2.31453  -2.31453
  Beta  occ. eigenvalues --   -1.09566  -1.08729  -1.08722  -1.08721  -1.08536
  Beta  occ. eigenvalues --   -1.08531  -0.61216  -0.61210  -0.61207  -0.61122
  Beta  occ. eigenvalues --   -0.61117  -0.61114  -0.56955  -0.53209  -0.53205
  Beta  occ. eigenvalues --   -0.51583  -0.51577  -0.51575  -0.40870  -0.40863
  Beta  occ. eigenvalues --   -0.40854  -0.39813  -0.39802  -0.39799
  Beta virt. eigenvalues --   -0.27007  -0.27006  -0.27005  -0.22611  -0.22608
  Beta virt. eigenvalues --   -0.07667  -0.03475  -0.03469  -0.03465   0.01910
  Beta virt. eigenvalues --    0.01918   0.03251   0.06050   0.06052   0.06058

 Mulliken charges and spin densities:
               1          2
     1  Fe   1.515720   4.335258
     2  O   -0.617929   0.106933
     3  H    0.432688   0.001936
     4  O   -0.618498   0.106748
     5  H    0.432831   0.001940
     6  O   -0.618049   0.106889
     7  H    0.432700   0.001942
     8  O   -0.617887   0.107070
     9  H    0.432768   0.001937
    10  O   -0.618366   0.106835
    11  H    0.432813   0.001935
    12  O   -0.617901   0.107033
    13  H    0.432668   0.001931
    14  H    0.432809   0.001937
    15  H    0.432757   0.001938
    16  H    0.432600   0.001932
    17  H    0.432748   0.001937
    18  H    0.432789   0.001938
    19  H    0.432740   0.001931
 Sum of Mulliken charges =   3.00000   5.00000

 Dipole moment (field-independent basis, Debye):
    X=              0.0021    Y=              0.0003    Z=              0.0009  Tot=              0.0023
 Quadrupole moment (field-independent basis, Debye-Ang):
   XX=             -6.7498   YY=             -6.7972   ZZ=             -6.7768
   XY=             -0.0102   XZ=              0.0062   YZ=              0.0037

 Normal termination of Gaussian 16 at Wed Mar  5 20:53:34 2025.
