 Gaussian 16, Revision C.02,

 ----------------------------------------------------------------------
 #p HSEH1PBE 6-31+G(2df,p) opt=(cartesian,calcall,maxcycles=500) freq s
 cf=(maxcycles=500,xqc,maxconventional=50) IOp(3/174=1000000) IOp(3/175
 =109000) IOp(3/176=1129000)
 ----------------------------------------------------------------------

 -----
 Title
 -----
 Symbolic Z-matrix:
 Charge =  3 Multiplicity = 6

 SCF Done:  E(UHSEH1PBE) =  -1720.29271282     A.U. after   16 cycles
 SCF Done:  E(UHSEH1PBE) =  -1720.32184045     A.U. after   12 cycles
 SCF Done:  E(UHSEH1PBE) =  -1720.37107972     A.U. after   14 cycles
 SCF Done:  E(UHSEH1PBE) =  -1720.42511727     A.U. after   15 cycles
 SCF Done:  E(UHSEH1PBE) =  -1720.43939197     A.U. after   14 cycles
 SCF Done:  E(UHSEH1PBE) =  -1720.47505756     A.U. after   14 cycles
 SCF Done:  E(UHSEH1PBE) =  -1720.49558369     A.U. after   14 cycles
 SCF Done:  E(UHSEH1PBE) =  -1720.50864620     A.U. after   14 cycles
 SCF Done:  E(UHSEH1PBE) =  -1720.51443768     A.U. after   13 cycles
 SCF Done:  E(UHSEH1PBE) =  -1720.51736488     A.U. after   13 cycles
 SCF Done:  E(UHSEH1PBE) =  -1720.52777588     A.U. after   13 cycles
 SCF Done:  E(UHSEH1PBE) =  -1720.52799387     A.U. after   11 cycles
 SCF Done:  E(UHSEH1PBE) =  -1720.52548151     A.U. after   13 cycles
 SCF Done:  E(UHSEH1PBE) =  -1720.52803538     A.U. after   12 cycles
 SCF Done:  E(UHSEH1PBE) =  -1720.52811600     A.U. after   12 cycles
 SCF Done:  E(UHSEH1PBE) =  -1720.52861255     A.U. after   12 cycles
 SCF Done:  E(UHSEH1PBE) =  -1720.52866858     A.U. after   11 cycles
 SCF Done:  E(UHSEH1PBE) =  -1720.52867701     A.U. after   10 cycles
 Optimization completed.
    -- Stationary point found.
 Normal termination of Gaussian 16 at Wed Mar  5 20:45:54 2025.

 ----------------------------------------------------------------------
 #P Geom=AllCheck Guess=TCheck SCRF=Check Test GenChk UHSEH1PBE/6-31+G(
 2df,p) Freq
 ----------------------------------------------------------------------

 Structure from the checkpoint file:  "Fe_2_HSE06.chk"
 -----
 Title
 -----
 Charge =  3 Multiplicity = 6

 SCF Done:  E(UHSEH1PBE) =  -1720.52867701     A.U. after    1 cycles

  Exact polarizability:      60.834      -0.004      60.832       0.001      -0.005      60.830
 Approx polarizability:      78.303      -0.002      78.300      -0.001      -0.001      78.293

                      1                      2                      3
                      A                      A                      A
 Frequencies --    113.8314               114.6931               115.6624
 Red. masses --      4.4464                 4.4735                 4.4419
 Frc consts  --      0.0339                 0.0347                 0.0350
 IR Inten    --      1.1208                 1.1516                 1.0977

                      4                      5                      6
                      A                      A                      A
 Frequencies --    170.0875               170.7744               171.0067
 Red. masses --      4.8801                 4.8762                 4.8822
 Frc consts  --      0.0832                 0.0838                 0.0841
 IR Inten    --      0.0000                 0.0000                 0.0000

                      7                      8                      9
                      A                      A                      A
 Frequencies --    177.0987               177.4575               177.6672
 Red. masses --      5.3666                 5.3744                 5.3636
 Frc consts  --      0.0992                 0.0997                 0.0998
 IR Inten    --      0.0875                 0.0871                 0.0809

                     10                     11                     12
                      A                      A                      A
 Frequencies --    261.4773               263.1109               339.4334
 Red. masses --      1.0078                 1.0078                 1.0236
 Frc consts  --      0.0406                 0.0411                 0.0695
 IR Inten    --      0.0010                 0.0009                 0.0001

                     13                     14                     15
                      A                      A                      A
 Frequencies --    339.5116               341.0477               342.1366
 Red. masses --      1.0239                 1.0283                 5.6169
 Frc consts  --      0.0695                 0.0705                 0.3874
 IR Inten    --      0.0002                 0.0000                 0.0000

                     16                     17                     18
                      A                      A                      A
 Frequencies --    342.1825               417.2060               417.3607
 Red. masses --      5.7524                 4.5602                 4.5472
 Frc consts  --      0.3968                 0.4677                 0.4667
 IR Inten    --      0.0000                 3.4035                 3.4953

                     19                     20                     21
                      A                      A                      A
 Frequencies --    417.6691               436.0365               478.9288
 Red. masses --      4.5619                 6.0315                 1.0079
 Frc consts  --      0.4689                 0.6757                 0.1362
 IR Inten    --      3.3597                 0.0000                 0.0360

                     22                     23                     24
                      A                      A                      A
 Frequencies --    489.9499               490.1646               490.9975
 Red. masses --      1.1222                 1.1222                 1.1227
 Frc consts  --      0.1587                 0.1589                 0.1595
 IR Inten    --      0.0004                 0.0072                 0.3660

                     25                     26                     27
                      A                      A                      A
 Frequencies --    505.9713               506.0183               506.6943
 Red. masses --      1.2335                 1.2330                 1.2306
 Frc consts  --      0.1860                 0.1860                 0.1861
 IR Inten    --    433.9663               433.7240               432.2469

                     28                     29                     30
                      A                      A                      A
 Frequencies --    645.1165               645.3212               645.6517
 Red. masses --      1.1558                 1.1556                 1.1554
 Frc consts  --      0.2834                 0.2835                 0.2838
 IR Inten    --      0.0010                 0.0179                 0.2705

                     31                     32                     33
                      A                      A                      A
 Frequencies --    659.5099               659.7359               660.0399
 Red. masses --      1.2288                 1.2285                 1.2278
 Frc consts  --      0.3149                 0.3150                 0.3151
 IR Inten    --    262.4163               261.4404               260.2285

                     34                     35                     36
                      A                      A                      A
 Frequencies --   1651.2896              1651.3775              1651.4354
 Red. masses --      1.0919                 1.0919                 1.0919
 Frc consts  --      1.7543                 1.7544                 1.7546
 IR Inten    --    243.9579               243.9799               244.0378

                     37                     38                     39
                      A                      A                      A
 Frequencies --   1653.6126              1653.7632              1663.9767
 Red. masses --      1.0922                 1.0922                 1.0812
 Frc consts  --      1.7596                 1.7599                 1.7638
 IR Inten    --      0.0222                 0.0456                 0.0012

                     40                     41                     42
                      A                      A                      A
 Frequencies --   3681.1863              3681.7895              3682.9442
 Red. masses --      1.0437                 1.0436                 1.0438
 Frc consts  --      8.3326                 8.3353                 8.3419
 IR Inten    --     75.3454                 0.1675               661.8147

                     43                     44                     45
                      A                      A                      A
 Frequencies --   3683.3968              3683.4157              3708.1927
 Red. masses --      1.0438                 1.0438                 1.0457
 Frc consts  --      8.3441                 8.3442                 8.4721
 IR Inten    --    736.8406               737.0225                 0.1485

                     46                     47                     48
                      A                      A                      A
 Frequencies --   3764.3763              3765.2854              3765.3126
 Red. masses --      1.0855                 1.0855                 1.0855
 Frc consts  --      9.0630                 9.0671                 9.0672
 IR Inten    --    135.0817                 0.6867                 0.0297

                     49                     50                     51
                      A                      A                      A
 Frequencies --   3765.8412              3766.0944              3766.1196
 Red. masses --      1.0856                 1.0856                 1.0856
 Frc consts  --      9.0704                 9.0717                 9.0718
 IR Inten    --    466.6051               600.6781               601.1225

 - Thermochemistry -
 -------------------
 Temperature   298.150 Kelvin.  Pressure   1.00000 Atm.
 Atom     1 has atomic number 26 and mass  55.93494

 Molecular mass:   163.99833 amu.
 Principal axes and moments of inertia in atomic units:
                           1         2         3
     Eigenvalues --  1157.163761157.218741157.39443
           X            0.99990  -0.01392  -0.00092
           Y            0.01391   0.99986  -0.00963
           Z            0.00105   0.00962   0.99995
 This molecule is an asymmetric top.
 Rotational symmetry number  1.
 Warning -- assumption of classical behavior for rotation
           may cause significant error
 Rotational temperatures (Kelvin)      0.07485     0.07485     0.07484
 Rotational constants (GHZ):           1.55962     1.55955     1.55931
 Zero-point vibrational energy     402716.6 (Joules/Mol)
                                   96.25158 (Kcal/Mol)
 Warning -- explicit consideration of  27 degrees of freedom as
           vibrations may cause significant error
 Vibrational temperatures:    163.78   165.02   166.41   244.72   245.71
          (Kelvin)            246.04   254.81   255.32   255.62   376.21
                              378.56   488.37   488.48   490.69   492.26
                              492.32   600.27   600.49   600.93   627.36
                              689.07   704.93   705.24   706.44   727.98
                              728.05   729.02   928.18   928.47   928.95
                              948.89   949.21   949.65  2375.84  2375.96
                             2376.05  2379.18  2379.40  2394.09  5296.41
                             5297.27  5298.94  5299.59  5299.61  5335.26
                             5416.10  5417.41  5417.44  5418.21  5418.57
                             5418.61

 Zero-point correction=                           0.153387 (Hartree/Particle)
 Thermal correction to Energy=                    0.168314
 Thermal correction to Enthalpy=                  0.169258
 Thermal correction to Gibbs Free Energy=         0.113524
 Sum of electronic and zero-point Energies=          -1720.375290
 Sum of electronic and thermal Energies=             -1720.360363
 Sum of electronic and thermal Enthalpies=           -1720.359419
 Sum of electronic and thermal Free Energies=        -1720.415153

                     E (Thermal)             CV                S
                      KCal/Mol        Cal/Mol-Kelvin    Cal/Mol-Kelvin
 Total                  105.619             54.777            117.303
 Electronic               0.000              0.000              3.561
 Translational            0.889              2.981             41.193
 Rotational               0.889              2.981             28.829
 Vibrational            103.841             48.815             43.721
 Vibration     1          0.607              1.938              3.203
 Vibration     2          0.608              1.937              3.188
 Vibration     3          0.608              1.936              3.172
 Vibration     4          0.625              1.879              2.435
 Vibration     5          0.626              1.878              2.427
 Vibration     6          0.626              1.878              2.424
 Vibration     7          0.628              1.871              2.359
 Vibration     8          0.628              1.870              2.355
 Vibration     9          0.628              1.870              2.353
 Vibration    10          0.669              1.743              1.652
 Vibration    11          0.670              1.740              1.641
 Vibration    12          0.719              1.597              1.215
 Vibration    13          0.719              1.597              1.214
 Vibration    14          0.721              1.593              1.207
 Vibration    15          0.721              1.591              1.202
 Vibration    16          0.721              1.591              1.202
 Vibration    17          0.780              1.433              0.902
 Vibration    18          0.780              1.433              0.901
 Vibration    19          0.781              1.432              0.900
 Vibration    20          0.796              1.392              0.839
 Vibration    21          0.835              1.297              0.713
 Vibration    22          0.846              1.272              0.684
 Vibration    23          0.846              1.272              0.683
 Vibration    24          0.847              1.270              0.681
 Vibration    25          0.861              1.237              0.643
 Vibration    26          0.861              1.237              0.643
 Vibration    27          0.862              1.235              0.642

 Optimization completed.
    -- Stationary point found.
 Normal termination of Gaussian 16 at Wed Mar  5 20:48:28 2025.
 Gaussian 16:  ES64L-G16RevC.02  7-Dec-2021

 ----------------------------------------------------------------------
 #p HSEH1PBE scrf=(cpcm,solvent=water) geom=allcheck guess=read chkbasi
 s IOp(3/174=1000000) IOp(3/175=109000) IOp(3/176=1129000)
 ----------------------------------------------------------------------

 Structure from the checkpoint file:  "Fe_2_HSE06.chk_solvated"
 -----
 Title
 -----
 Charge =  3 Multiplicity = 6

                         Standard orientation:
 ---------------------------------------------------------------------
 Center     Atomic      Atomic             Coordinates (Angstroms)
 Number     Number       Type             X           Y           Z
 ---------------------------------------------------------------------
      1         26           0        0.000008   -0.000008    0.000005
      2          8           0        0.593296    1.606178   -1.094483
      3          1           0        0.189792    1.921638   -1.921951
      4          8           0        1.255709   -1.190421   -1.065845
      5          1           0        1.383096   -2.147826   -0.946706
      6          8           0        1.483848    0.365115    1.339638
      7          1           0        1.421181    0.927811    2.131142
      8          8           0       -0.593414   -1.606099    1.094550
      9          1           0       -1.334244   -2.202653    0.888802
     10          8           0       -1.255658    1.190408    1.065881
     11          1           0       -1.383463    2.147778    0.946151
     12          8           0       -1.483779   -0.365147   -1.339711
     13          1           0       -1.421028   -0.927671   -2.131327
     14          1           0       -2.389178   -0.009684   -1.309097
     15          1           0        1.841088   -0.909255   -1.790636
     16          1           0        1.334019    2.202835   -0.888668
     17          1           0       -1.840887    0.909188    1.790909
     18          1           0        2.389180    0.009478    1.309105
     19          1           0       -0.189784   -1.921698    1.921908
 ---------------------------------------------------------------------

 SCF Done:  E(UHSEH1PBE) =  -1721.16703051     A.U. after   12 cycles

 The electronic state is 6-A.
 Alpha  occ. eigenvalues -- -256.64926 -30.48790 -26.30171 -26.30171 -26.30171
 Alpha  occ. eigenvalues --  -19.33167 -19.33167 -19.33164 -19.33163 -19.33162
 Alpha  occ. eigenvalues --  -19.33161  -3.88592  -2.64239  -2.64238  -2.64238
 Alpha  occ. eigenvalues --   -1.14885  -1.13816  -1.13811  -1.13809  -1.13631
 Alpha  occ. eigenvalues --   -1.13627  -0.66264  -0.66262  -0.65275  -0.65271
 Alpha  occ. eigenvalues --   -0.65269  -0.63967  -0.63961  -0.63960  -0.61735
 Alpha  occ. eigenvalues --   -0.59766  -0.59764  -0.59764  -0.55438  -0.55434
 Alpha  occ. eigenvalues --   -0.55433  -0.45147  -0.45144  -0.43561  -0.43558
 Alpha  occ. eigenvalues --   -0.43555  -0.42943  -0.42940  -0.42937
 Alpha virt. eigenvalues --   -0.06899  -0.02120  -0.02117  -0.02115   0.03298
 Alpha virt. eigenvalues --    0.03324   0.03328   0.06979   0.06980   0.06981
 Alpha virt. eigenvalues --    0.07600   0.07604   0.07605   0.10837   0.13141

  Beta  occ. eigenvalues -- -256.64835 -30.39064 -26.21983 -26.21983 -26.21983
  Beta  occ. eigenvalues --  -19.32832 -19.32832 -19.32829 -19.32829 -19.32827
  Beta  occ. eigenvalues --  -19.32827  -3.64103  -2.38043  -2.38042  -2.38041
  Beta  occ. eigenvalues --   -1.14169  -1.13105  -1.13099  -1.13098  -1.12876
  Beta  occ. eigenvalues --   -1.12872  -0.63747  -0.63741  -0.63740  -0.63642
  Beta  occ. eigenvalues --   -0.63636  -0.63635  -0.60214  -0.55863  -0.55860
  Beta  occ. eigenvalues --   -0.54140  -0.54135  -0.54134  -0.43378  -0.43375
  Beta  occ. eigenvalues --   -0.43372  -0.42355  -0.42351  -0.42348
  Beta virt. eigenvalues --   -0.25119  -0.25117  -0.25116  -0.20488  -0.20487
  Beta virt. eigenvalues --   -0.06395  -0.01907  -0.01905  -0.01902   0.03695
  Beta virt. eigenvalues --    0.03798   0.03802   0.07431   0.07433   0.07434

 Mulliken charges and spin densities:
               1          2
     1  Fe   1.391085   4.476056
     2  O   -0.629904   0.081687
     3  H    0.449064   0.002834
     4  O   -0.630018   0.081637
     5  H    0.449068   0.002833
     6  O   -0.629998   0.081640
     7  H    0.449014   0.002834
     8  O   -0.629902   0.081689
     9  H    0.449036   0.002831
    10  O   -0.630023   0.081664
    11  H    0.449104   0.002833
    12  O   -0.630008   0.081634
    13  H    0.449013   0.002834
    14  H    0.449074   0.002833
    15  H    0.449089   0.002832
    16  H    0.449035   0.002831
    17  H    0.449131   0.002833
    18  H    0.449074   0.002832
    19  H    0.449067   0.002834
 Sum of Mulliken charges =   3.00000   5.00000

 Dipole moment (field-independent basis, Debye):
    X=             -0.0006    Y=             -0.0001    Z=             -0.0006  Tot=              0.0008
 Quadrupole moment (field-independent basis, Debye-Ang):
   XX=             -7.2470   YY=             -7.2504   ZZ=             -7.2659
   XY=              0.0040   XZ=             -0.0039   YZ=              0.0017

 Normal termination of Gaussian 16 at Wed Mar  5 20:49:37 2025.
