 Gaussian 16, Revision C.02,

 ----------------------------------------------------------------------
 #p n12 6-31+G(2df,p) opt=(cartesian,calcall,maxcycles=500) freq scf=(m
 axcycles=500,xqc,maxconventional=50) IOp(3/174=1000000) IOp(3/175=2391
 600) IOp(3/176=1349300)
 ----------------------------------------------------------------------

 -----
 Title
 -----
 Symbolic Z-matrix:
 Charge =  3 Multiplicity = 6

 SCF Done:  E(UN12) =  -1721.05493185     A.U. after   19 cycles
 SCF Done:  E(UN12) =  -1721.08153195     A.U. after   16 cycles
 SCF Done:  E(UN12) =  -1721.12726758     A.U. after   17 cycles
 SCF Done:  E(UN12) =  -1721.18158097     A.U. after   18 cycles
 SCF Done:  E(UN12) =  -1721.20691549     A.U. after   18 cycles
 SCF Done:  E(UN12) =  -1721.22577886     A.U. after   17 cycles
 SCF Done:  E(UN12) =  -1721.23670613     A.U. after   18 cycles
 SCF Done:  E(UN12) =  -1721.25148383     A.U. after   18 cycles
 SCF Done:  E(UN12) =  -1721.25799372     A.U. after   17 cycles
 SCF Done:  E(UN12) =  -1721.26217026     A.U. after   15 cycles
 SCF Done:  E(UN12) =  -1721.27813465     A.U. after    5 cycles
 SCF Done:  E(UN12) =  -1721.27813246     A.U. after    9 cycles
 SCF Done:  E(UN12) =  -1721.27813458     A.U. after    9 cycles
 SCF Done:  E(UN12) =  -1721.27813131     A.U. after   10 cycles
 SCF Done:  E(UN12) =  -1721.27813946     A.U. after    9 cycles
 SCF Done:  E(UN12) =  -1721.27813527     A.U. after    9 cycles
 SCF Done:  E(UN12) =  -1721.27813791     A.U. after    9 cycles
 SCF Done:  E(UN12) =  -1721.27813659     A.U. after    7 cycles
 Optimization completed.
    -- Stationary point found.
 Normal termination of Gaussian 16 at Wed Mar  5 21:12:38 2025.

 ----------------------------------------------------------------------
 #P Geom=AllCheck Guess=TCheck SCRF=Check Test GenChk UN12/6-31+G(2df,p
 ) Freq
 ----------------------------------------------------------------------

 Structure from the checkpoint file:  "Fe_2_n12.chk"
 -----
 Title
 -----
 Charge =  3 Multiplicity = 6

 SCF Done:  E(UN12) =  -1721.27813659     A.U. after    3 cycles

  Exact polarizability:      75.027       0.003      75.028       0.001       0.001      75.021
 Approx polarizability:     134.332      -0.002     134.305       0.007      -0.008     134.270

                      1                      2                      3
                      A                      A                      A
 Frequencies --    112.2486               112.8668               113.2665
 Red. masses --      4.2745                 4.2821                 4.2680
 Frc consts  --      0.0317                 0.0321                 0.0323
 IR Inten    --      0.1730                 0.1668                 0.1698

                      4                      5                      6
                      A                      A                      A
 Frequencies --    170.6539               170.7919               171.0662
 Red. masses --      4.7252                 4.7199                 4.7291
 Frc consts  --      0.0811                 0.0811                 0.0815
 IR Inten    --      0.0002                 0.0001                 0.0007

                      7                      8                      9
                      A                      A                      A
 Frequencies --    176.4748               176.6332               176.8442
 Red. masses --      5.2286                 5.2266                 5.2294
 Frc consts  --      0.0959                 0.0961                 0.0964
 IR Inten    --      0.4272                 0.4269                 0.4260

                     10                     11                     12
                      A                      A                      A
 Frequencies --    277.0131               279.2089               319.7712
 Red. masses --      1.0079                 1.0078                 5.8138
 Frc consts  --      0.0456                 0.0463                 0.3503
 IR Inten    --      0.0011                 0.0113                 0.0001

                     13                     14                     15
                      A                      A                      A
 Frequencies --    320.1495               349.8104               351.6065
 Red. masses --      5.8139                 1.0196                 1.0197
 Frc consts  --      0.3511                 0.0735                 0.0743
 IR Inten    --      0.0001                 0.0002                 0.0000

                     16                     17                     18
                      A                      A                      A
 Frequencies --    352.7729               397.7406               398.1277
 Red. masses --      1.0196                 6.0109                 5.9705
 Frc consts  --      0.0748                 0.5603                 0.5576
 IR Inten    --      0.0003                 0.0029                 0.0186

                     19                     20                     21
                      A                      A                      A
 Frequencies --    398.6505               401.3108               480.4708
 Red. masses --      5.9763                 6.0151                 1.0079
 Frc consts  --      0.5596                 0.5708                 0.1371
 IR Inten    --      0.0135                 0.0000                 0.0641

                     22                     23                     24
                      A                      A                      A
 Frequencies --    523.6434               525.0590               525.3784
 Red. masses --      1.1451                 1.1453                 1.1453
 Frc consts  --      0.1850                 0.1860                 0.1863
 IR Inten    --      0.0051                 0.0188                 0.0163

                     25                     26                     27
                      A                      A                      A
 Frequencies --    535.8639               537.0244               537.8310
 Red. masses --      1.1835                 1.1823                 1.1816
 Frc consts  --      0.2002                 0.2009                 0.2014
 IR Inten    --    342.1891               339.1492               340.7084

                     28                     29                     30
                      A                      A                      A
 Frequencies --    637.0510               637.3771               638.2797
 Red. masses --      1.2236                 1.2225                 1.2213
 Frc consts  --      0.2926                 0.2926                 0.2932
 IR Inten    --    241.5246               239.1647               240.4399

                     31                     32                     33
                      A                      A                      A
 Frequencies --    639.0390               639.9404               640.3673
 Red. masses --      1.1446                 1.1441                 1.1440
 Frc consts  --      0.2754                 0.2760                 0.2764
 IR Inten    --      0.0440                 0.1255                 0.1778

                     34                     35                     36
                      A                      A                      A
 Frequencies --   1631.9493              1632.0991              1632.5321
 Red. masses --      1.0921                 1.0921                 1.0921
 Frc consts  --      1.7137                 1.7140                 1.7150
 IR Inten    --    219.4012               219.6995               219.4871

                     37                     38                     39
                      A                      A                      A
 Frequencies --   1635.1184              1635.4698              1645.5344
 Red. masses --      1.0910                 1.0910                 1.0827
 Frc consts  --      1.7186                 1.7194                 1.7273
 IR Inten    --      0.0031                 0.0080                 0.0004

                     40                     41                     42
                      A                      A                      A
 Frequencies --   3674.7290              3674.8308              3675.0244
 Red. masses --      1.0434                 1.0434                 1.0434
 Frc consts  --      8.3012                 8.3016                 8.3027
 IR Inten    --    976.3930               977.1361               976.9272

                     43                     44                     45
                      A                      A                      A
 Frequencies --   3675.9905              3676.1616              3706.3680
 Red. masses --      1.0434                 1.0434                 1.0448
 Frc consts  --      8.3068                 8.3076                 8.4561
 IR Inten    --      0.3501                 0.1607                 0.0005

                     46                     47                     48
                      A                      A                      A
 Frequencies --   3767.9799              3768.0004              3768.2257
 Red. masses --      1.0860                 1.0860                 1.0859
 Frc consts  --      9.0842                 9.0843                 9.0851
 IR Inten    --      1.6085                 0.1222                 0.1255

                     49                     50                     51
                      A                      A                      A
 Frequencies --   3768.6205              3768.6375              3768.8620
 Red. masses --      1.0860                 1.0860                 1.0860
 Frc consts  --      9.0877                 9.0877                 9.0887
 IR Inten    --    536.7850               538.5577               538.1435

 - Thermochemistry -
 -------------------
 Temperature   298.150 Kelvin.  Pressure   1.00000 Atm.
 Atom     1 has atomic number 26 and mass  55.93494

 Molecular mass:   163.99833 amu.
 Principal axes and moments of inertia in atomic units:
                           1         2         3
     Eigenvalues --  1155.018141155.216311155.24964
           X            0.99985   0.00435  -0.01676
           Y           -0.00636   0.99253  -0.12185
           Z            0.01611   0.12194   0.99241
 This molecule is an asymmetric top.
 Rotational symmetry number  1.
 Warning -- assumption of classical behavior for rotation
           may cause significant error
 Rotational temperatures (Kelvin)      0.07499     0.07498     0.07497
 Rotational constants (GHZ):           1.56252     1.56225     1.56221
 Zero-point vibrational energy     402127.5 (Joules/Mol)
                                   96.11078 (Kcal/Mol)
 Warning -- explicit consideration of  27 degrees of freedom as
           vibrations may cause significant error
 Vibrational temperatures:    161.50   162.39   162.97   245.53   245.73
          (Kelvin)            246.13   253.91   254.14   254.44   398.56
                              401.72   460.08   460.62   503.30   505.88
                              507.56   572.26   572.82   573.57   577.40
                              691.29   753.41   755.44   755.90   770.99
                              772.66   773.82   916.57   917.04   918.34
                              919.43   920.73   921.35  2348.01  2348.23
                             2348.85  2352.57  2353.08  2367.56  5287.12
                             5287.26  5287.54  5288.93  5289.18  5332.64
                             5421.28  5421.31  5421.64  5422.20  5422.23
                             5422.55

 Zero-point correction=                           0.153162 (Hartree/Particle)
 Thermal correction to Energy=                    0.168062
 Thermal correction to Enthalpy=                  0.169006
 Thermal correction to Gibbs Free Energy=         0.113296
 Sum of electronic and zero-point Energies=          -1721.124974
 Sum of electronic and thermal Energies=             -1721.110074
 Sum of electronic and thermal Enthalpies=           -1721.109130
 Sum of electronic and thermal Free Energies=        -1721.164840

                     E (Thermal)             CV                S
                      KCal/Mol        Cal/Mol-Kelvin    Cal/Mol-Kelvin
 Total                  105.461             54.700            117.252
 Electronic               0.000              0.000              3.561
 Translational            0.889              2.981             41.193
 Rotational               0.889              2.981             28.824
 Vibrational            103.683             48.739             43.675
 Vibration     1          0.607              1.939              3.230
 Vibration     2          0.607              1.939              3.219
 Vibration     3          0.607              1.938              3.212
 Vibration     4          0.626              1.879              2.428
 Vibration     5          0.626              1.878              2.427
 Vibration     6          0.626              1.878              2.424
 Vibration     7          0.628              1.871              2.365
 Vibration     8          0.628              1.871              2.364
 Vibration     9          0.628              1.871              2.361
 Vibration    10          0.678              1.716              1.552
 Vibration    11          0.680              1.712              1.539
 Vibration    12          0.706              1.636              1.311
 Vibration    13          0.706              1.635              1.309
 Vibration    14          0.727              1.576              1.167
 Vibration    15          0.728              1.572              1.159
 Vibration    16          0.729              1.570              1.154
 Vibration    17          0.764              1.475              0.971
 Vibration    18          0.764              1.474              0.970
 Vibration    19          0.765              1.473              0.968
 Vibration    20          0.767              1.467              0.958
 Vibration    21          0.837              1.293              0.709
 Vibration    22          0.879              1.198              0.602
 Vibration    23          0.880              1.195              0.598
 Vibration    24          0.880              1.194              0.598
 Vibration    25          0.891              1.171              0.574
 Vibration    26          0.892              1.168              0.572
 Vibration    27          0.893              1.166              0.570

 Normal termination of Gaussian 16 at Wed Mar  5 21:14:17 2025.
 Gaussian 16:  ES64L-G16RevC.02  7-Dec-2021

 ----------------------------------------------------------------------
 #p n12 scrf=(cpcm,solvent=water) geom=allcheck guess=read chkbasis IOp
 (3/174=1000000) IOp(3/175=2391600) IOp(3/176=1349300)
 ----------------------------------------------------------------------

 Structure from the checkpoint file:  "Fe_2_n12.chk_solvated"
 -----
 Title
 -----
 Charge =  3 Multiplicity = 6

                         Standard orientation:
 ---------------------------------------------------------------------
 Center     Atomic      Atomic             Coordinates (Angstroms)
 Number     Number       Type             X           Y           Z
 ---------------------------------------------------------------------
      1         26           0        0.000157    0.000036   -0.000006
      2          8           0        0.259255   -0.381433   -1.978028
      3          1           0       -0.264199   -0.991209   -2.514884
      4          8           0        1.285400   -1.504628    0.458250
      5          1           0        1.547138   -1.781499    1.346442
      6          8           0        1.551935    1.309830   -0.048030
      7          1           0        1.495150    2.255801   -0.237664
      8          8           0       -0.260726    0.378673    1.978374
      9          1           0       -0.929751   -0.018005    2.552028
     10          8           0       -1.283494    1.506404   -0.457666
     11          1           0       -1.544038    1.784944   -1.345686
     12          8           0       -1.552668   -1.308915    0.047110
     13          1           0       -1.497111   -2.254948    0.236796
     14          1           0       -2.481728   -1.098423   -0.115916
     15          1           0        1.746148   -2.074058   -0.172229
     16          1           0        0.927978    0.013177   -2.553464
     17          1           0       -1.743950    2.075614    0.173222
     18          1           0        2.481380    1.100351    0.114126
     19          1           0        0.261279    0.987875    2.517296
 ---------------------------------------------------------------------

 SCF Done:  E(UN12) =  -1721.91810238     A.U. after   13 cycles

 The electronic state is 6-A.
 Alpha  occ. eigenvalues -- -254.60708 -29.86111 -26.03316 -26.03316 -26.03315
 Alpha  occ. eigenvalues --  -18.89197 -18.89197 -18.89196 -18.89196 -18.89193
 Alpha  occ. eigenvalues --  -18.89191  -3.53371  -2.38419  -2.38419  -2.38418
 Alpha  occ. eigenvalues --   -1.04005  -1.03113  -1.03111  -1.03110  -1.02922
 Alpha  occ. eigenvalues --   -1.02920  -0.58925  -0.58920  -0.58918  -0.58667
 Alpha  occ. eigenvalues --   -0.58662  -0.58661  -0.54651  -0.54260  -0.54257
 Alpha  occ. eigenvalues --   -0.49258  -0.49256  -0.49254  -0.45589  -0.45588
 Alpha  occ. eigenvalues --   -0.45586  -0.38369  -0.38369  -0.38367  -0.37201
 Alpha  occ. eigenvalues --   -0.37200  -0.37199  -0.35514  -0.35511
 Alpha virt. eigenvalues --   -0.08754  -0.04823  -0.04821  -0.04819   0.00352
 Alpha virt. eigenvalues --    0.00357   0.01684   0.04468   0.04469   0.04470
 Alpha virt. eigenvalues --    0.04831   0.04836   0.04837   0.10371   0.10421

  Beta  occ. eigenvalues -- -254.60262 -29.76681 -25.95685 -25.95685 -25.95685
  Beta  occ. eigenvalues --  -18.88700 -18.88700 -18.88700 -18.88699 -18.88697
  Beta  occ. eigenvalues --  -18.88696  -3.35937  -2.21569  -2.21568  -2.21567
  Beta  occ. eigenvalues --   -1.03270  -1.02373  -1.02370  -1.02370  -1.02164
  Beta  occ. eigenvalues --   -1.02162  -0.58336  -0.58332  -0.58330  -0.58220
  Beta  occ. eigenvalues --   -0.58215  -0.58214  -0.53648  -0.50044  -0.50040
  Beta  occ. eigenvalues --   -0.48263  -0.48261  -0.48259  -0.38347  -0.38346
  Beta  occ. eigenvalues --   -0.38343  -0.37104  -0.37104  -0.37101
  Beta virt. eigenvalues --   -0.29127  -0.29126  -0.29124  -0.23816  -0.23813
  Beta virt. eigenvalues --   -0.08429  -0.04590  -0.04588  -0.04587   0.01057
  Beta virt. eigenvalues --    0.01061   0.01581   0.04762   0.04763   0.04764

 Mulliken charges and spin densities:
               1          2
     1  Fe   1.134363   4.081921
     2  O   -0.551959   0.148049
     3  H    0.431420   0.002505
     4  O   -0.551970   0.148078
     5  H    0.431464   0.002505
     6  O   -0.552014   0.148094
     7  H    0.431527   0.002505
     8  O   -0.552022   0.147986
     9  H    0.431495   0.002507
    10  O   -0.552101   0.147956
    11  H    0.431466   0.002510
    12  O   -0.552302   0.147813
    13  H    0.431532   0.002517
    14  H    0.431514   0.002509
    15  H    0.431530   0.002506
    16  H    0.431540   0.002512
    17  H    0.431511   0.002508
    18  H    0.431546   0.002503
    19  H    0.431460   0.002514
 Sum of Mulliken charges =   3.00000   5.00000

 Dipole moment (field-independent basis, Debye):
    X=              0.0008    Y=              0.0004    Z=             -0.0003  Tot=              0.0009
 Quadrupole moment (field-independent basis, Debye-Ang):
   XX=             -6.1154   YY=             -6.1319   ZZ=             -6.1206
   XY=              0.0012   XZ=             -0.0054   YZ=             -0.0096

 Normal termination of Gaussian 16 at Wed Mar  5 21:15:08 2025.
