 Gaussian 16, Revision C.02,

 ----------------------------------------------------------------------
 #p B3LYP empiricaldispersion=gd3 6-31+G(2df,p) opt=(cartesian,calcall,
 maxcycles=500) freq scf=(maxcycles=500,xqc,maxconventional=50)
 ----------------------------------------------------------------------

 -----
 Title
 -----
 Symbolic Z-matrix:
 Charge =  3 Multiplicity = 5

 SCF Done:  E(UB3LYP) =  -1608.30962930     A.U. after   51 cycles
 SCF Done:  E(UB3LYP) =  -1608.31052657     a.u. after   10 cycles
 SCF Done:  E(UB3LYP) =  -1608.31164895     A.U. after   18 cycles
 SCF Done:  E(UB3LYP) =  -1608.34255993     A.U. after   17 cycles
 SCF Done:  E(UB3LYP) =  -1608.38459670     A.U. after   22 cycles
 SCF Done:  E(UB3LYP) =  -1608.40346681     A.U. after   19 cycles
 SCF Done:  E(UB3LYP) =  -1608.43742156     A.U. after   17 cycles
 SCF Done:  E(UB3LYP) =  -1608.45770084     A.U. after   17 cycles
 SCF Done:  E(UB3LYP) =  -1608.49606103     A.U. after   17 cycles
 SCF Done:  E(UB3LYP) =  -1608.49860554     A.U. after   18 cycles
 SCF Done:  E(UB3LYP) =  -1608.54662822     A.U. after   19 cycles
 SCF Done:  E(UB3LYP) =  -1608.54792553     A.U. after   14 cycles
 SCF Done:  E(UB3LYP) =  -1608.54796529     A.U. after   15 cycles
 SCF Done:  E(UB3LYP) =  -1608.54803993     A.U. after   16 cycles
 SCF Done:  E(UB3LYP) =  -1608.54807508     A.U. after   15 cycles
 SCF Done:  E(UB3LYP) =  -1608.54808666     A.U. after   13 cycles
 SCF Done:  E(UB3LYP) =  -1608.54808937     A.U. after   13 cycles
 SCF Done:  E(UB3LYP) =  -1608.54808952     A.U. after   12 cycles
 Optimization completed.
    -- Stationary point found.
 Normal termination of Gaussian 16 at Thu May 23 15:30:24 2024.

 ----------------------------------------------------------------------
 #P Geom=AllCheck Guess=TCheck SCRF=Check GenChk UB3LYP/6-31+G(2df,p) F
 req
 ----------------------------------------------------------------------

 Structure from the checkpoint file:  "Mn_3_B3LYP.chk"
 -----
 Title
 -----
 Charge =  3 Multiplicity = 5

 SCF Done:  E(UB3LYP) =  -1608.54808952     A.U. after    1 cycles

  Exact polarizability:      58.783       0.000      60.299       0.000      -0.001      60.977
 Approx polarizability:      72.152       0.000      79.351       0.000      -0.001      80.239

                      1                      2                      3
                      A                      A                      A
 Frequencies --    108.7057               119.7843               128.2412
 Red. masses --      5.8218                 4.4350                 4.6926
 Frc consts  --      0.0405                 0.0375                 0.0455
 IR Inten    --      3.8245                 2.0948                 7.3001

                      4                      5                      6
                      A                      A                      A
 Frequencies --    139.3730               153.9093               161.2563
 Red. masses --      4.6948                 5.6395                 5.2621
 Frc consts  --      0.0537                 0.0787                 0.0806
 IR Inten    --      0.0000                 0.0000                 0.0000

                      7                      8                      9
                      A                      A                      A
 Frequencies --    185.2094               186.6277               192.0915
 Red. masses --      5.9193                 5.2352                 8.2175
 Frc consts  --      0.1196                 0.1074                 0.1787
 IR Inten    --      3.5563                 0.0000                 8.0870

                     10                     11                     12
                      A                      A                      A
 Frequencies --    203.9996               223.1777               278.8175
 Red. masses --      3.9847                 1.0078                 1.0078
 Frc consts  --      0.0977                 0.0296                 0.0462
 IR Inten    --      1.0226                 0.0000                 0.0000

                     13                     14                     15
                      A                      A                      A
 Frequencies --    300.8919               310.8187               316.0872
 Red. masses --      1.0182                 5.9338                 1.0460
 Frc consts  --      0.0543                 0.3377                 0.0616
 IR Inten    --      0.0000                 0.0000                 0.0000

                     16                     17                     18
                      A                      A                      A
 Frequencies --    317.4658               348.0113               409.6061
 Red. masses --      1.0893                 2.9950                 1.3820
 Frc consts  --      0.0647                 0.2137                 0.1366
 IR Inten    --      0.0000                39.5799               491.5195

                     19                     20                     21
                      A                      A                      A
 Frequencies --    413.3127               428.6611               435.4329
 Red. masses --      1.0329                 1.0791                 1.1028
 Frc consts  --      0.1040                 0.1168                 0.1232
 IR Inten    --      0.0023                 0.0000               412.5633

                     22                     23                     24
                      A                      A                      A
 Frequencies --    453.1122               477.0901               480.6114
 Red. masses --      6.0350                 1.0078                 3.2298
 Frc consts  --      0.7300                 0.1352                 0.4396
 IR Inten    --      0.0000                 0.0000                30.8949

                     25                     26                     27
                      A                      A                      A
 Frequencies --    489.4170               519.6080               535.1041
 Red. masses --      4.6001                 1.1286                 1.3190
 Frc consts  --      0.6492                 0.1795                 0.2225
 IR Inten    --     44.5650                 0.0000               434.2274

                     28                     29                     30
                      A                      A                      A
 Frequencies --    613.6547               627.9293               686.5020
 Red. masses --      1.1433                 1.2743                 1.1632
 Frc consts  --      0.2537                 0.2960                 0.3230
 IR Inten    --      0.0000               284.2394                 0.0000

                     31                     32                     33
                      A                      A                      A
 Frequencies --    700.3785               719.8828               732.7118
 Red. masses --      1.1568                 1.2306                 1.2981
 Frc consts  --      0.3343                 0.3757                 0.4106
 IR Inten    --      0.0000               195.8279               170.2779

                     34                     35                     36
                      A                      A                      A
 Frequencies --   1615.1545              1622.2978              1638.5585
 Red. masses --      1.1142                 1.0982                 1.0954
 Frc consts  --      1.7125                 1.7029                 1.7327
 IR Inten    --      0.0000               197.7782               181.3061

                     37                     38                     39
                      A                      A                      A
 Frequencies --   1647.8085              1663.9157              1669.5229
 Red. masses --      1.0881                 1.0853                 1.0810
 Frc consts  --      1.7408                 1.7704                 1.7752
 IR Inten    --      0.0000               217.9251                 0.0000

                     40                     41                     42
                      A                      A                      A
 Frequencies --   3604.7778              3605.4513              3622.0811
 Red. masses --      1.0426                 1.0415                 1.0430
 Frc consts  --      7.9822                 7.9770                 8.0624
 IR Inten    --    799.5868                 0.0005               791.4158

                     43                     44                     45
                      A                      A                      A
 Frequencies --   3633.2527              3673.1476              3679.7512
 Red. masses --      1.0437                 1.0445                 1.0451
 Frc consts  --      8.1175                 8.3027                 8.3377
 IR Inten    --      0.0011               516.3200                 0.0000

                     46                     47                     48
                      A                      A                      A
 Frequencies --   3690.2895              3691.6990              3704.3038
 Red. masses --      1.0873                 1.0876                 1.0869
 Frc consts  --      8.7238                 8.7333                 8.7876
 IR Inten    --      0.0001               665.8320                 0.1093

                     49                     50                     51
                      A                      A                      A
 Frequencies --   3705.4480              3745.1865              3745.8080
 Red. masses --      1.0872                 1.0838                 1.0839
 Frc consts  --      8.7952                 8.9567                 8.9602
 IR Inten    --    616.5221                 0.0005               509.8186

 - Thermochemistry -
 -------------------
 Temperature   298.150 Kelvin.  Pressure   1.00000 Atm.
 Atom     1 has atomic number 25 and mass  54.93805

 Molecular mass:   163.00143 amu.
 Principal axes and moments of inertia in atomic units:
                           1         2         3
     Eigenvalues --  1093.505991191.183131195.14690
           X            1.00000  -0.00000   0.00000
           Y            0.00000   1.00000   0.00008
           Z           -0.00000  -0.00008   1.00000
 This molecule is an asymmetric top.
 Rotational symmetry number  1.
 Warning -- assumption of classical behavior for rotation
           may cause significant error
 Rotational temperatures (Kelvin)      0.07921     0.07271     0.07247
 Rotational constants (GHZ):           1.65042     1.51508     1.51006
 Zero-point vibrational energy     396896.6 (Joules/Mol)
                                   94.86057 (Kcal/Mol)
 Warning -- explicit consideration of  28 degrees of freedom as
           vibrations may cause significant error
 Vibrational temperatures:    156.40   172.34   184.51   200.53   221.44
          (Kelvin)            232.01   266.48   268.52   276.38   293.51
                              321.10   401.16   432.92   447.20   454.78
                              456.76   500.71   589.33   594.66   616.75
                              626.49   651.93   686.43   691.49   704.16
                              747.60   769.90   882.91   903.45   987.72
                             1007.69  1035.75  1054.21  2323.85  2334.12
                             2357.52  2370.83  2394.00  2402.07  5186.47
                             5187.44  5211.37  5227.44  5284.84  5294.34
                             5309.50  5311.53  5329.67  5331.31  5388.49
                             5389.38

 Zero-point correction=                           0.151170 (Hartree/Particle)
 Thermal correction to Energy=                    0.166566
 Thermal correction to Enthalpy=                  0.167511
 Thermal correction to Gibbs Free Energy=         0.110903
 Sum of electronic and zero-point Energies=          -1608.396920
 Sum of electronic and thermal Energies=             -1608.381523
 Sum of electronic and thermal Enthalpies=           -1608.380579
 Sum of electronic and thermal Free Energies=        -1608.437186

                     E (Thermal)             CV                S
                      KCal/Mol        Cal/Mol-Kelvin    Cal/Mol-Kelvin
 Total                  104.522             55.356            119.140
 Electronic               0.000              0.000              3.198
 Translational            0.889              2.981             41.174
 Rotational               0.889              2.981             28.833
 Vibrational            102.745             49.394             45.934
 Vibration     1          0.606              1.942              3.292
 Vibration     2          0.609              1.933              3.104
 Vibration     3          0.611              1.925              2.972
 Vibration     4          0.615              1.914              2.812
 Vibration     5          0.619              1.898              2.623
 Vibration     6          0.622              1.890              2.535
 Vibration     7          0.631              1.860              2.275
 Vibration     8          0.632              1.858              2.261
 Vibration     9          0.634              1.851              2.208
 Vibration    10          0.640              1.834              2.097
 Vibration    11          0.649              1.806              1.933
 Vibration    12          0.679              1.713              1.541
 Vibration    13          0.693              1.672              1.412
 Vibration    14          0.700              1.653              1.358
 Vibration    15          0.703              1.643              1.330
 Vibration    16          0.704              1.640              1.323
 Vibration    17          0.726              1.579              1.175
 Vibration    18          0.774              1.449              0.928
 Vibration    19          0.777              1.441              0.915
 Vibration    20          0.790              1.408              0.863
 Vibration    21          0.796              1.393              0.841
 Vibration    22          0.812              1.354              0.786
 Vibration    23          0.834              1.301              0.718
 Vibration    24          0.837              1.293              0.708
 Vibration    25          0.845              1.274              0.685
 Vibration    26          0.875              1.207              0.611
 Vibration    27          0.890              1.172              0.576
 Vibration    28          0.973              1.003              0.427

 Optimization completed.
    -- Stationary point found.
 Normal termination of Gaussian 16 at Thu May 23 15:32:19 2024.
 Gaussian 16:  ES64L-G16RevC.02  7-Dec-2021

 ----------------------------------------------------------------------
 #p B3LYP empiricaldispersion=gd3 scf=(maxcycles=500,xqc,maxconventiona
 l=50) scrf=(cpcm,solvent=water) geom=allcheck guess=read chkbasis
 ----------------------------------------------------------------------

 Structure from the checkpoint file:  "Mn_3_B3LYP.chk_solvated"
 -----
 Title
 -----
 Charge =  3 Multiplicity = 5

                         Standard orientation:
 ---------------------------------------------------------------------
 Center     Atomic      Atomic             Coordinates (Angstroms)
 Number     Number       Type             X           Y           Z
 ---------------------------------------------------------------------
      1         25           0       -0.000000    0.000000   -0.000000
      2          8           0       -0.000015    0.002264   -1.969542
      3          1           0       -0.797929    0.002881   -2.535746
      4          8           0       -0.000004   -1.977202   -0.002253
      5          1           0       -0.000038   -2.548588    0.790595
      6          8           0        2.152318   -0.000003   -0.000014
      7          1           0        2.739537    0.777413    0.000851
      8          8           0        0.000015   -0.002266    1.969542
      9          1           0       -0.797890   -0.002880    2.535760
     10          8           0        0.000005    1.977202    0.002254
     11          1           0       -0.000052    2.548590   -0.790591
     12          8           0       -2.152319    0.000004    0.000014
     13          1           0       -2.739537   -0.777413   -0.000881
     14          1           0       -2.739535    0.777422    0.000919
     15          1           0        0.000026   -2.546790   -0.796393
     16          1           0        0.797891    0.002907   -2.535759
     17          1           0        0.000056    2.546790    0.796390
     18          1           0        2.739534   -0.777422   -0.000890
     19          1           0        0.797930   -0.002906    2.535745
 ---------------------------------------------------------------------

 SCF Done:  E(UB3LYP) =  -1609.18849473     A.U. after   14 cycles

 The electronic state is 5-A.
 Alpha  occ. eigenvalues -- -235.71391 -27.60280 -23.67935 -23.67876 -23.66767
 Alpha  occ. eigenvalues --  -19.28799 -19.28799 -19.28408 -19.28408 -19.24645
 Alpha  occ. eigenvalues --  -19.24644  -3.47205  -2.33455  -2.33336  -2.32641
 Alpha  occ. eigenvalues --   -1.14607  -1.13853  -1.13531  -1.13500  -1.10301
 Alpha  occ. eigenvalues --   -1.10236  -0.66027  -0.65878  -0.65586  -0.65260
 Alpha  occ. eigenvalues --   -0.61965  -0.61806  -0.61524  -0.60018  -0.57326
 Alpha  occ. eigenvalues --   -0.55618  -0.55568  -0.53343  -0.52464  -0.51486
 Alpha  occ. eigenvalues --   -0.50075  -0.45108  -0.44566  -0.43340  -0.42405
 Alpha  occ. eigenvalues --   -0.41291  -0.40433  -0.39307
 Alpha virt. eigenvalues --   -0.26223  -0.06595  -0.02461  -0.02345  -0.01998
 Alpha virt. eigenvalues --    0.02787   0.03003   0.03562   0.06714   0.06723
 Alpha virt. eigenvalues --    0.06754   0.06830   0.07350   0.08070   0.11522

  Beta  occ. eigenvalues -- -235.71297 -27.53242 -23.62568 -23.62486 -23.59945
  Beta  occ. eigenvalues --  -19.28743 -19.28743 -19.28359 -19.28359 -19.24403
  Beta  occ. eigenvalues --  -19.24402  -3.28869  -2.15659  -2.15482  -2.10289
  Beta  occ. eigenvalues --   -1.14422  -1.13674  -1.13377  -1.13340  -1.09831
  Beta  occ. eigenvalues --   -1.09771  -0.65628  -0.65478  -0.65368  -0.65181
  Beta  occ. eigenvalues --   -0.61343  -0.61301  -0.60823  -0.58421  -0.55761
  Beta  occ. eigenvalues --   -0.55690  -0.53050  -0.51529  -0.45406  -0.45004
  Beta  occ. eigenvalues --   -0.44432  -0.43878  -0.41061  -0.40621
  Beta virt. eigenvalues --   -0.21225  -0.20023  -0.19433  -0.17837  -0.14804
  Beta virt. eigenvalues --   -0.06369  -0.02387  -0.02274  -0.01903   0.02964
  Beta virt. eigenvalues --    0.03197   0.03898   0.06875   0.06877   0.06895

 Mulliken charges and spin densities:
               1          2
     1  Mn   1.566078   3.831580
     2  O   -0.636931   0.014948
     3  H    0.451014   0.000648
     4  O   -0.639034   0.012521
     5  H    0.448946   0.000327
     6  O   -0.657101   0.047685
     7  H    0.425056   0.003553
     8  O   -0.636931   0.014948
     9  H    0.451014   0.000648
    10  O   -0.639034   0.012521
    11  H    0.448945   0.000327
    12  O   -0.657101   0.047685
    13  H    0.425056   0.003553
    14  H    0.425056   0.003553
    15  H    0.448942   0.000327
    16  H    0.451014   0.000648
    17  H    0.448941   0.000327
    18  H    0.425056   0.003553
    19  H    0.451014   0.000648
 Sum of Mulliken charges =   3.00000   4.00000

 Dipole moment (field-independent basis, Debye):
    X=             -0.0000    Y=              0.0000    Z=             -0.0000  Tot=              0.0000
 Quadrupole moment (field-independent basis, Debye-Ang):
   XX=             -8.8578   YY=             -7.2614   ZZ=             -6.9004
   XY=             -0.0000   XZ=              0.0001   YZ=             -0.0002

 Normal termination of Gaussian 16 at Thu May 23 15:32:46 2024.
