 Gaussian 16, Revision C.02,

 ----------------------------------------------------------------------
 #p BLYP empiricaldispersion=gd3 6-31+G(2df,p) opt=(cartesian,calcall,m
 axcycles=500) freq scf=(maxcycles=500,xqc,maxconventional=50)
 ----------------------------------------------------------------------

 -----
 Title
 -----
 Symbolic Z-matrix:
 Charge =  3 Multiplicity = 5

 SCF Done:  E(UB-LYP) =  -1608.21512365     A.U. after   51 cycles
 SCF Done:  E(UB-LYP) =  -1608.22054134     a.u. after    7 cycles
 SCF Done:  E(UB-LYP) =  -1608.24496643     A.U. after   51 cycles
 SCF Done:  E(UB-LYP) =  -1608.25296111     a.u. after   13 cycles
 SCF Done:  E(UB-LYP) =  -1608.27853137     A.U. after   15 cycles
 SCF Done:  E(UB-LYP) =  -1608.31931620     A.U. after   13 cycles
 SCF Done:  E(UB-LYP) =  -1608.37689783     A.U. after   16 cycles
 SCF Done:  E(UB-LYP) =  -1608.39677181     A.U. after   18 cycles
 SCF Done:  E(UB-LYP) =  -1608.40594381     A.U. after   13 cycles
 SCF Done:  E(UB-LYP) =  -1608.42901431     A.U. after   15 cycles
 SCF Done:  E(UB-LYP) =  -1608.47147305     A.U. after   14 cycles
 SCF Done:  E(UB-LYP) =  -1608.47497741     A.U. after   14 cycles
 SCF Done:  E(UB-LYP) =  -1608.47463354     A.U. after   13 cycles
 SCF Done:  E(UB-LYP) =  -1608.47553847     A.U. after   13 cycles
 SCF Done:  E(UB-LYP) =  -1608.47562998     A.U. after   12 cycles
 SCF Done:  E(UB-LYP) =  -1608.47565971     A.U. after   12 cycles
 SCF Done:  E(UB-LYP) =  -1608.47566126     A.U. after   10 cycles
 SCF Done:  E(UB-LYP) =  -1608.47566136     A.U. after    8 cycles
 Optimization completed.
    -- Stationary point found.
 Normal termination of Gaussian 16 at Thu May 23 15:43:12 2024.

 ----------------------------------------------------------------------
 #P Geom=AllCheck Guess=TCheck SCRF=Check GenChk UBLYP/6-31+G(2df,p) Fr
 eq
 ----------------------------------------------------------------------

 Structure from the checkpoint file:  "Mn_3_BLYP.chk"
 -----
 Title
 -----
 Charge =  3 Multiplicity = 5

 SCF Done:  E(UB-LYP) =  -1608.47566136     A.U. after    3 cycles

  Exact polarizability:      71.658      -0.000      67.871       0.000       0.004      69.034
 Approx polarizability:     110.393      -0.000     111.221       0.001       0.010     114.471

                      1                      2                      3
                      A                      A                      A
 Frequencies --    105.9013               112.4419               115.9333
 Red. masses --      5.6922                 4.6305                 6.4361
 Frc consts  --      0.0376                 0.0345                 0.0510
 IR Inten    --      2.4707                 4.0187                20.1644

                      4                      5                      6
                      A                      A                      A
 Frequencies --    121.1684               129.9478               136.3609
 Red. masses --      4.7763                 5.2379                 4.7354
 Frc consts  --      0.0413                 0.0521                 0.0519
 IR Inten    --      0.0000                 0.0000                 0.0000

                      7                      8                      9
                      A                      A                      A
 Frequencies --    160.8615               168.9756               175.5517
 Red. masses --      4.6354                 4.7919                 8.7790
 Frc consts  --      0.0707                 0.0806                 0.1594
 IR Inten    --      0.0001                15.0064                21.1035

                     10                     11                     12
                      A                      A                      A
 Frequencies --    196.3896               221.1304               242.3931
 Red. masses --      4.0476                 1.0078                 1.1515
 Frc consts  --      0.0920                 0.0290                 0.0399
 IR Inten    --      0.9204                 0.0001                 0.0001

                     13                     14                     15
                      A                      A                      A
 Frequencies --    278.7240               292.0122               292.7422
 Red. masses --      1.0078                 5.9366                 1.1167
 Frc consts  --      0.0461                 0.2983                 0.0564
 IR Inten    --      0.0007                 0.0000                 0.0140

                     16                     17                     18
                      A                      A                      A
 Frequencies --    296.1604               298.7617               355.7581
 Red. masses --      1.0186                 1.3644                 2.9164
 Frc consts  --      0.0526                 0.0718                 0.2175
 IR Inten    --      0.0002               226.2905               233.5745

                     19                     20                     21
                      A                      A                      A
 Frequencies --    369.6991               379.1750               392.2043
 Red. masses --      1.0557                 1.0425                 1.0141
 Frc consts  --      0.0850                 0.0883                 0.0919
 IR Inten    --    427.0140                 0.0001                 0.0000

                     22                     23                     24
                      A                      A                      A
 Frequencies --    425.5460               458.2387               461.4793
 Red. masses --      6.0585                 2.7756                 5.4716
 Frc consts  --      0.6464                 0.3434                 0.6865
 IR Inten    --      0.0000                53.9554                14.3034

                     25                     26                     27
                      A                      A                      A
 Frequencies --    467.2724               491.9642               501.5018
 Red. masses --      1.0078                 1.1273                 1.4279
 Frc consts  --      0.1297                 0.1607                 0.2116
 IR Inten    --      0.0001                 0.0000               378.5341

                     28                     29                     30
                      A                      A                      A
 Frequencies --    582.9738               595.4514               663.4851
 Red. masses --      1.1437                 1.2584                 1.1613
 Frc consts  --      0.2290                 0.2629                 0.3012
 IR Inten    --      0.0000               219.0735                 0.0000

                     31                     32                     33
                      A                      A                      A
 Frequencies --    675.4001               696.5740               706.2426
 Red. masses --      1.1527                 1.2311                 1.2874
 Frc consts  --      0.3098                 0.3519                 0.3783
 IR Inten    --      0.0000               141.9484               131.1749

                     34                     35                     36
                      A                      A                      A
 Frequencies --   1565.1651              1574.4491              1592.7279
 Red. masses --      1.1157                 1.0978                 1.0940
 Frc consts  --      1.6103                 1.6033                 1.6352
 IR Inten    --      0.0000               166.3304               147.3567

                     37                     38                     39
                      A                      A                      A
 Frequencies --   1602.5873              1617.5862              1624.2252
 Red. masses --      1.0877                 1.0857                 1.0810
 Frc consts  --      1.6459                 1.6738                 1.6802
 IR Inten    --      0.0000               180.9183                 0.0000

                     40                     41                     42
                      A                      A                      A
 Frequencies --   3478.9775              3482.2851              3498.7954
 Red. masses --      1.0422                 1.0415                 1.0427
 Frc consts  --      7.4320                 7.4410                 7.5204
 IR Inten    --    818.7197                 0.0010               792.5334

                     43                     44                     45
                      A                      A                      A
 Frequencies --   3508.0329              3537.6561              3546.0790
 Red. masses --      1.0431                 1.0441                 1.0447
 Frc consts  --      7.5630                 7.6991                 7.7399
 IR Inten    --      0.0029               561.4167                 0.0000

                     46                     47                     48
                      A                      A                      A
 Frequencies --   3569.3324              3570.3865              3585.0142
 Red. masses --      1.0874                 1.0876                 1.0869
 Frc consts  --      8.1622                 8.1689                 8.2303
 IR Inten    --      0.0064               594.7340                 0.2690

                     49                     50                     51
                      A                      A                      A
 Frequencies --   3585.9014              3615.3505              3615.8585
 Red. masses --      1.0871                 1.0838                 1.0838
 Frc consts  --      8.2361                 8.3460                 8.3488
 IR Inten    --    545.5661                 0.0001               452.4437

 - Thermochemistry -
 -------------------
 Temperature   298.150 Kelvin.  Pressure   1.00000 Atm.
 Atom     1 has atomic number 25 and mass  54.93805

 Molecular mass:   163.00143 amu.
 Principal axes and moments of inertia in atomic units:
                           1         2         3
     Eigenvalues --  1116.672051215.583281223.60552
           X            1.00000   0.00000   0.00001
           Y           -0.00000   1.00000  -0.00036
           Z           -0.00001   0.00036   1.00000
 This molecule is an asymmetric top.
 Rotational symmetry number  1.
 Warning -- assumption of classical behavior for rotation
           may cause significant error
 Rotational temperatures (Kelvin)      0.07756     0.07125     0.07079
 Rotational constants (GHZ):           1.61618     1.48467     1.47494
 Zero-point vibrational energy     381242.9 (Joules/Mol)
                                   91.11924 (Kcal/Mol)
 Warning -- explicit consideration of  29 degrees of freedom as
           vibrations may cause significant error
 Vibrational temperatures:    152.37   161.78   166.80   174.33   186.97
          (Kelvin)            196.19   231.44   243.12   252.58   282.56
                              318.16   348.75   401.02   420.14   421.19
                              426.11   429.85   511.86   531.91   545.55
                              564.29   612.27   659.30   663.97   672.30
                              707.83   721.55   838.77   856.72   954.61
                              971.75  1002.21  1016.13  2251.92  2265.28
                             2291.58  2305.77  2327.35  2336.90  5005.47
                             5010.23  5033.99  5047.28  5089.90  5102.02
                             5135.47  5136.99  5158.04  5159.31  5201.68
                             5202.41

 Zero-point correction=                           0.145208 (Hartree/Particle)
 Thermal correction to Energy=                    0.161470
 Thermal correction to Enthalpy=                  0.162414
 Thermal correction to Gibbs Free Energy=         0.103736
 Sum of electronic and zero-point Energies=          -1608.330454
 Sum of electronic and thermal Energies=             -1608.314191
 Sum of electronic and thermal Enthalpies=           -1608.313247
 Sum of electronic and thermal Free Energies=        -1608.371926

                     E (Thermal)             CV                S
                      KCal/Mol        Cal/Mol-Kelvin    Cal/Mol-Kelvin
 Total                  101.324             56.962            123.500
 Electronic               0.000              0.000              3.198
 Translational            0.889              2.981             41.174
 Rotational               0.889              2.981             28.898
 Vibrational             99.547             51.001             50.229
 Vibration     1          0.605              1.945              3.343
 Vibration     2          0.607              1.939              3.226
 Vibration     3          0.608              1.936              3.167
 Vibration     4          0.609              1.932              3.082
 Vibration     5          0.612              1.923              2.947
 Vibration     6          0.614              1.917              2.854
 Vibration     7          0.622              1.890              2.540
 Vibration     8          0.625              1.881              2.447
 Vibration     9          0.628              1.873              2.375
 Vibration    10          0.636              1.845              2.167
 Vibration    11          0.648              1.809              1.950
 Vibration    12          0.659              1.775              1.785
 Vibration    13          0.679              1.713              1.541
 Vibration    14          0.687              1.689              1.462
 Vibration    15          0.688              1.687              1.458
 Vibration    16          0.690              1.681              1.439
 Vibration    17          0.692              1.676              1.424
 Vibration    18          0.731              1.563              1.141
 Vibration    19          0.742              1.534              1.081
 Vibration    20          0.749              1.515              1.042
 Vibration    21          0.760              1.487              0.992
 Vibration    22          0.787              1.415              0.873
 Vibration    23          0.816              1.343              0.771
 Vibration    24          0.819              1.335              0.762
 Vibration    25          0.825              1.323              0.745
 Vibration    26          0.848              1.268              0.679
 Vibration    27          0.857              1.247              0.654
 Vibration    28          0.940              1.068              0.480
 Vibration    29          0.953              1.041              0.458

 Optimization completed.
    -- Stationary point found.
 Normal termination of Gaussian 16 at Thu May 23 15:44:49 2024.
 Gaussian 16:  ES64L-G16RevC.02  7-Dec-2021

 ----------------------------------------------------------------------
 #p BLYP empiricaldispersion=gd3 scf=(maxcycles=500,xqc,maxconventional
 =50) scrf=(cpcm,solvent=water) geom=allcheck guess=read chkbasis
 ----------------------------------------------------------------------

 Structure from the checkpoint file:  "Mn_3_BLYP.chk_solvated"
 -----
 Title
 -----
 Charge =  3 Multiplicity = 5

                         Standard orientation:
 ---------------------------------------------------------------------
 Center     Atomic      Atomic             Coordinates (Angstroms)
 Number     Number       Type             X           Y           Z
 ---------------------------------------------------------------------
      1         25           0       -0.000001    0.000001    0.000000
      2          8           0       -0.000070   -0.006130   -1.986775
      3          1           0       -0.806462   -0.007880   -2.557376
      4          8           0        0.000011   -2.001889    0.006062
      5          1           0       -0.000263   -2.575387    0.808844
      6          8           0        2.176925   -0.000001   -0.000071
      7          1           0        2.770808    0.784764   -0.002580
      8          8           0        0.000075    0.006137    1.986775
      9          1           0       -0.806284    0.007927    2.557423
     10          8           0       -0.000002    2.001890   -0.006061
     11          1           0       -0.000543    2.575388   -0.808848
     12          8           0       -2.176928   -0.000012    0.000070
     13          1           0       -2.770803   -0.784784    0.002362
     14          1           0       -2.770817    0.784749   -0.002160
     15          1           0        0.000232   -2.580174   -0.793280
     16          1           0        0.806293   -0.007579   -2.557417
     17          1           0        0.000500    2.580175    0.793284
     18          1           0        2.770805   -0.784769    0.002376
     19          1           0        0.806471    0.007577    2.557370
 ---------------------------------------------------------------------

 SCF Done:  E(UB-LYP) =  -1609.11331364     A.U. after   12 cycles

 The electronic state is 5-A.
 Alpha  occ. eigenvalues -- -234.46413 -27.10284 -23.26832 -23.26713 -23.25450
 Alpha  occ. eigenvalues --  -18.93645 -18.93644 -18.93055 -18.93054 -18.89519
 Alpha  occ. eigenvalues --  -18.89518  -3.24958  -2.15691  -2.15504  -2.13868
 Alpha  occ. eigenvalues --   -1.04113  -1.03549  -1.03068  -1.03053  -0.99972
 Alpha  occ. eigenvalues --   -0.99923  -0.59217  -0.58960  -0.58774  -0.58447
 Alpha  occ. eigenvalues --   -0.55060  -0.54932  -0.54483  -0.53146  -0.49365
 Alpha  occ. eigenvalues --   -0.49105  -0.48861  -0.45725  -0.43057  -0.41588
 Alpha  occ. eigenvalues --   -0.39480  -0.38641  -0.37910  -0.35747  -0.34912
 Alpha  occ. eigenvalues --   -0.34394  -0.33580  -0.30423
 Alpha virt. eigenvalues --   -0.28504  -0.08717  -0.04579  -0.04406  -0.03962
 Alpha virt. eigenvalues --    0.00049   0.00430   0.02430   0.04023   0.04082
 Alpha virt. eigenvalues --    0.04096   0.04183   0.04994   0.05607   0.09761

  Beta  occ. eigenvalues -- -234.46353 -27.04401 -23.22737 -23.22545 -23.20266
  Beta  occ. eigenvalues --  -18.93560 -18.93560 -18.92977 -18.92977 -18.89280
  Beta  occ. eigenvalues --  -18.89280  -3.10156  -2.02439  -2.02029  -1.97455
  Beta  occ. eigenvalues --   -1.03901  -1.03342  -1.02880  -1.02871  -0.99555
  Beta  occ. eigenvalues --   -0.99508  -0.59008  -0.58863  -0.58537  -0.58368
  Beta  occ. eigenvalues --   -0.54752  -0.54706  -0.53755  -0.51683  -0.49331
  Beta  occ. eigenvalues --   -0.49048  -0.46597  -0.45095  -0.39144  -0.38503
  Beta  occ. eigenvalues --   -0.38131  -0.37426  -0.34847  -0.34337
  Beta virt. eigenvalues --   -0.25182  -0.24229  -0.23536  -0.21727  -0.19114
  Beta virt. eigenvalues --   -0.08436  -0.04482  -0.04316  -0.03829   0.00222
  Beta virt. eigenvalues --    0.00688   0.02602   0.04212   0.04222   0.04283

 Mulliken charges and spin densities:
               1          2
     1  Mn   1.369169   3.734613
     2  O   -0.578151   0.030392
     3  H    0.440164   0.000538
     4  O   -0.582763   0.026099
     5  H    0.436952   0.000387
     6  O   -0.605128   0.064963
     7  H    0.413602   0.004695
     8  O   -0.578151   0.030392
     9  H    0.440165   0.000538
    10  O   -0.582761   0.026099
    11  H    0.436953   0.000387
    12  O   -0.605128   0.064963
    13  H    0.413602   0.004695
    14  H    0.413602   0.004695
    15  H    0.436970   0.000387
    16  H    0.440164   0.000538
    17  H    0.436971   0.000387
    18  H    0.413602   0.004695
    19  H    0.440164   0.000538
 Sum of Mulliken charges =   3.00000   4.00000

 Dipole moment (field-independent basis, Debye):
    X=             -0.0002    Y=              0.0001    Z=             -0.0000  Tot=              0.0002
 Quadrupole moment (field-independent basis, Debye-Ang):
   XX=             -8.4590   YY=             -6.8876   ZZ=             -6.4197
   XY=             -0.0000   XZ=              0.0009   YZ=              0.0007

 Normal termination of Gaussian 16 at Thu May 23 15:45:35 2024.
