 Gaussian 16, Revision C.02,

 ----------------------------------------------------------------------
 #p HSEH1PBE 6-31+G(2df,p) opt=(cartesian,calcall,maxcycles=500) freq s
 cf=(maxcycles=500,xqc,maxconventional=50)
 ----------------------------------------------------------------------

 -----
 Title
 -----
 Symbolic Z-matrix:
 Charge =  3 Multiplicity = 5

 SCF Done:  E(UHSEH1PBE) =  -1607.63052830     A.U. after   51 cycles
 SCF Done:  E(UHSEH1PBE) =  -1607.63103628     a.u. after    7 cycles
 SCF Done:  E(UHSEH1PBE) =  -1607.63222286     A.U. after   18 cycles
 SCF Done:  E(UHSEH1PBE) =  -1607.66138197     A.U. after   17 cycles
 SCF Done:  E(UHSEH1PBE) =  -1607.70117301     A.U. after   22 cycles
 SCF Done:  E(UHSEH1PBE) =  -1607.74216553     A.U. after   17 cycles
 SCF Done:  E(UHSEH1PBE) =  -1607.78816605     A.U. after   17 cycles
 SCF Done:  E(UHSEH1PBE) =  -1607.82088298     A.U. after   17 cycles
 SCF Done:  E(UHSEH1PBE) =  -1607.83488110     A.U. after   17 cycles
 SCF Done:  E(UHSEH1PBE) =  -1607.84079676     A.U. after   17 cycles
 SCF Done:  E(UHSEH1PBE) =  -1607.85026911     A.U. after   14 cycles
 SCF Done:  E(UHSEH1PBE) =  -1607.85053572     A.U. after   16 cycles
 SCF Done:  E(UHSEH1PBE) =  -1607.85104853     A.U. after   16 cycles
 SCF Done:  E(UHSEH1PBE) =  -1607.85109427     A.U. after   16 cycles
 SCF Done:  E(UHSEH1PBE) =  -1607.85111002     A.U. after   15 cycles
 SCF Done:  E(UHSEH1PBE) =  -1607.85108198     A.U. after   16 cycles
 SCF Done:  E(UHSEH1PBE) =  -1607.85112092     A.U. after   15 cycles
 SCF Done:  E(UHSEH1PBE) =  -1607.85112917     A.U. after   13 cycles
 Optimization completed.
    -- Stationary point found.
 Normal termination of Gaussian 16 at Thu May 23 17:05:21 2024.

 ----------------------------------------------------------------------
 #P Geom=AllCheck Guess=TCheck SCRF=Check GenChk UHSEH1PBE/6-31+G(2df,p
 ) Freq
 ----------------------------------------------------------------------

 Structure from the checkpoint file:  "Mn_3_HSE06.chk"
 -----
 Title
 -----
 Charge =  3 Multiplicity = 5

 SCF Done:  E(UHSEH1PBE) =  -1607.85112917     A.U. after    1 cycles

  Exact polarizability:      56.330      -0.002      58.280       0.002       0.007      58.777
 Approx polarizability:      69.936      -0.004      77.570       0.004       0.006      78.100

                      1                      2                      3
                      A                      A                      A
 Frequencies --    106.9994               119.2549               128.6919
 Red. masses --      5.9024                 4.4975                 4.8056
 Frc consts  --      0.0398                 0.0377                 0.0469
 IR Inten    --      4.2478                 2.5989                 8.8401

                      4                      5                      6
                      A                      A                      A
 Frequencies --    137.4898               151.1466               183.3538
 Red. masses --      4.7093                 5.7074                 5.1793
 Frc consts  --      0.0524                 0.0768                 0.1026
 IR Inten    --      0.0005                 0.0016                 0.0270

                      7                      8                      9
                      A                      A                      A
 Frequencies --    185.5909               191.2768               198.8468
 Red. masses --      5.9067                 8.4063                 5.2490
 Frc consts  --      0.1199                 0.1812                 0.1223
 IR Inten    --      5.7192                11.2326                 0.0004

                     10                     11                     12
                      A                      A                      A
 Frequencies --    206.8528               218.9250               278.3932
 Red. masses --      3.9553                 1.0079                 1.0079
 Frc consts  --      0.0997                 0.0285                 0.0460
 IR Inten    --      1.1473                 0.0035                 0.0011

                     13                     14                     15
                      A                      A                      A
 Frequencies --    298.6637               300.7695               307.3321
 Red. masses --      1.0184                 5.8546                 1.0945
 Frc consts  --      0.0535                 0.3120                 0.0609
 IR Inten    --      0.0346                 0.0000                 0.0244

                     16                     17                     18
                      A                      A                      A
 Frequencies --    312.5420               332.7052               398.0726
 Red. masses --      1.0524                 3.1490                 1.3380
 Frc consts  --      0.0606                 0.2054                 0.1249
 IR Inten    --      0.1024                32.7690               497.5028

                     19                     20                     21
                      A                      A                      A
 Frequencies --    410.8279               422.9513               427.4039
 Red. masses --      1.0291                 1.0765                 1.0794
 Frc consts  --      0.1023                 0.1135                 0.1162
 IR Inten    --      0.0251                 0.1585               422.6720

                     22                     23                     24
                      A                      A                      A
 Frequencies --    459.8123               480.6068               487.1575
 Red. masses --      5.9941                 1.0078                 2.9824
 Frc consts  --      0.7467                 0.1372                 0.4170
 IR Inten    --      0.0003                 0.0032                42.7511

                     25                     26                     27
                      A                      A                      A
 Frequencies --    495.4812               520.2769               536.6961
 Red. masses --      4.2208                 1.1290                 1.3395
 Frc consts  --      0.6105                 0.1801                 0.2273
 IR Inten    --     16.1468                 0.0140               419.1588

                     28                     29                     30
                      A                      A                      A
 Frequencies --    598.2467               614.3654               679.3452
 Red. masses --      1.1392                 1.3271                 1.1620
 Frc consts  --      0.2402                 0.2951                 0.3160
 IR Inten    --      0.0313               303.8123                 0.0126

                     31                     32                     33
                      A                      A                      A
 Frequencies --    693.7578               714.0855               729.6268
 Red. masses --      1.1554                 1.2307                 1.3181
 Frc consts  --      0.3276                 0.3697                 0.4134
 IR Inten    --      0.0002               200.8478               176.3428

                     34                     35                     36
                      A                      A                      A
 Frequencies --   1621.1993              1626.1435              1642.8422
 Red. masses --      1.1142                 1.1001                 1.0974
 Frc consts  --      1.7254                 1.7140                 1.7451
 IR Inten    --      0.0039               208.6328               192.2453

                     37                     38                     39
                      A                      A                      A
 Frequencies --   1652.0023              1668.2501              1673.4123
 Red. masses --      1.0896                 1.0875                 1.0830
 Frc consts  --      1.7521                 1.7832                 1.7869
 IR Inten    --      0.0002               226.3759                 0.0001

                     40                     41                     42
                      A                      A                      A
 Frequencies --   3656.1262              3656.9441              3673.4382
 Red. masses --      1.0427                 1.0417                 1.0432
 Frc consts  --      8.2121                 8.2082                 8.2938
 IR Inten    --    789.5539                 1.3130               788.2048

                     43                     44                     45
                      A                      A                      A
 Frequencies --   3684.4579              3718.4657              3725.0988
 Red. masses --      1.0439                 1.0449                 1.0455
 Frc consts  --      8.3491                 8.5121                 8.5479
 IR Inten    --      0.0146               524.9443                 0.0035

                     46                     47                     48
                      A                      A                      A
 Frequencies --   3745.1334              3746.6434              3759.1644
 Red. masses --      1.0874                 1.0878                 1.0871
 Frc consts  --      8.9864                 8.9969                 9.0513
 IR Inten    --      0.7738               675.0364                 0.1027

                     49                     50                     51
                      A                      A                      A
 Frequencies --   3760.3789              3792.5779              3793.2177
 Red. masses --      1.0874                 1.0839                 1.0840
 Frc consts  --      9.0595                 9.1859                 9.1896
 IR Inten    --    638.1453                 0.0107               527.1060

 - Thermochemistry -
 -------------------
 Temperature   298.150 Kelvin.  Pressure   1.00000 Atm.
 Atom     1 has atomic number 25 and mass  54.93805

 Molecular mass:   163.00143 amu.
 Principal axes and moments of inertia in atomic units:
                           1         2         3
     Eigenvalues --  1077.250251182.163681184.90449
           X            1.00000   0.00012   0.00002
           Y           -0.00012   1.00000  -0.00131
           Z           -0.00002   0.00131   1.00000
 This molecule is an asymmetric top.
 Rotational symmetry number  1.
 Warning -- assumption of classical behavior for rotation
           may cause significant error
 Rotational temperatures (Kelvin)      0.08040     0.07327     0.07310
 Rotational constants (GHZ):           1.67532     1.52664     1.52311
 Zero-point vibrational energy     400288.7 (Joules/Mol)
                                   95.67130 (Kcal/Mol)
 Warning -- explicit consideration of  29 degrees of freedom as
           vibrations may cause significant error
 Vibrational temperatures:    153.95   171.58   185.16   197.82   217.47
          (Kelvin)            263.81   267.02   275.20   286.10   297.62
                              314.98   400.55   429.71   432.74   442.18
                              449.68   478.69   572.74   591.09   608.53
                              614.94   661.57   691.49   700.91   712.89
                              748.56   772.19   860.74   883.93   977.43
                              998.16  1027.41  1049.77  2332.54  2339.66
                             2363.68  2376.86  2400.24  2407.67  5260.35
                             5261.53  5285.26  5301.11  5350.04  5359.59
                             5388.41  5390.58  5408.60  5410.35  5456.67
                             5457.59

 Zero-point correction=                           0.152462 (Hartree/Particle)
 Thermal correction to Energy=                    0.167896
 Thermal correction to Enthalpy=                  0.168841
 Thermal correction to Gibbs Free Energy=         0.112218
 Sum of electronic and zero-point Energies=          -1607.698667
 Sum of electronic and thermal Energies=             -1607.683233
 Sum of electronic and thermal Enthalpies=           -1607.682289
 Sum of electronic and thermal Free Energies=        -1607.738911

                     E (Thermal)             CV                S
                      KCal/Mol        Cal/Mol-Kelvin    Cal/Mol-Kelvin
 Total                  105.357             55.507            119.172
 Electronic               0.000              0.000              3.198
 Translational            0.889              2.981             41.174
 Rotational               0.889              2.981             28.802
 Vibrational            103.579             49.545             45.997
 Vibration     1          0.606              1.944              3.323
 Vibration     2          0.609              1.933              3.112
 Vibration     3          0.611              1.925              2.966
 Vibration     4          0.614              1.916              2.839
 Vibration     5          0.619              1.901              2.658
 Vibration     6          0.631              1.862              2.294
 Vibration     7          0.632              1.860              2.271
 Vibration     8          0.634              1.852              2.215
 Vibration     9          0.637              1.841              2.144
 Vibration    10          0.641              1.830              2.071
 Vibration    11          0.647              1.812              1.968
 Vibration    12          0.679              1.713              1.544
 Vibration    13          0.692              1.676              1.424
 Vibration    14          0.693              1.672              1.413
 Vibration    15          0.697              1.660              1.377
 Vibration    16          0.701              1.650              1.349
 Vibration    17          0.715              1.610              1.247
 Vibration    18          0.764              1.474              0.970
 Vibration    19          0.775              1.447              0.924
 Vibration    20          0.785              1.420              0.882
 Vibration    21          0.789              1.411              0.867
 Vibration    22          0.818              1.339              0.767
 Vibration    23          0.837              1.293              0.708
 Vibration    24          0.843              1.279              0.691
 Vibration    25          0.851              1.260              0.670
 Vibration    26          0.875              1.205              0.609
 Vibration    27          0.892              1.169              0.572
 Vibration    28          0.956              1.036              0.453
 Vibration    29          0.974              1.001              0.426

 Normal termination of Gaussian 16 at Thu May 23 17:07:53 2024.
 Gaussian 16:  ES64L-G16RevC.02  7-Dec-2021

 ----------------------------------------------------------------------
 #p HSEH1PBE scf=(maxcycles=500,xqc,maxconventional=50) scrf=(cpcm,solv
 ent=water) geom=allcheck guess=read chkbasis
 ----------------------------------------------------------------------

 Structure from the checkpoint file:  "Mn_3_HSE06.chk_solvated"
 -----
 Title
 -----
 Charge =  3 Multiplicity = 5

                         Standard orientation:
 ---------------------------------------------------------------------
 Center     Atomic      Atomic             Coordinates (Angstroms)
 Number     Number       Type             X           Y           Z
 ---------------------------------------------------------------------
      1         25           0       -0.000112   -0.000018   -0.000065
      2          8           0        0.000269   -0.022723   -1.955594
      3          1           0       -0.794969   -0.026948   -2.519191
      4          8           0        0.000924   -1.960930    0.022320
      5          1           0        0.007829   -2.519664    0.819612
      6          8           0        2.149809    0.001250    0.000148
      7          1           0        2.736425    0.775155   -0.005763
      8          8           0        0.000818    0.022685    1.955447
      9          1           0       -0.794298    0.026033    2.519210
     10          8           0       -0.001913    1.960894   -0.022899
     11          1           0       -0.007318    2.537747    0.761449
     12          8           0       -2.149818   -0.001130    0.000721
     13          1           0       -2.736525   -0.774897    0.012717
     14          1           0       -2.737016    0.772275   -0.010787
     15          1           0       -0.006107   -2.537513   -0.762148
     16          1           0        0.796064   -0.031099   -2.518362
     17          1           0        0.004132    2.519332   -0.820345
     18          1           0        2.737124   -0.772127    0.006058
     19          1           0        0.796737    0.031797    2.518018
 ---------------------------------------------------------------------

 SCF Done:  E(UHSEH1PBE) =  -1608.49228009     A.U. after   14 cycles

 The electronic state is 5-A.
 Alpha  occ. eigenvalues -- -235.98444 -27.70206 -23.73874 -23.73828 -23.72777
 Alpha  occ. eigenvalues --  -19.34756 -19.34755 -19.34411 -19.34410 -19.30420
 Alpha  occ. eigenvalues --  -19.30419  -3.51409  -2.36091  -2.35971  -2.35561
 Alpha  occ. eigenvalues --   -1.15858  -1.15014  -1.14734  -1.14690  -1.11259
 Alpha  occ. eigenvalues --   -1.11191  -0.66188  -0.66125  -0.65664  -0.65380
 Alpha  occ. eigenvalues --   -0.62440  -0.61652  -0.61307  -0.60211  -0.57649
 Alpha  occ. eigenvalues --   -0.55592  -0.55564  -0.53957  -0.52362  -0.52259
 Alpha  occ. eigenvalues --   -0.50786  -0.44961  -0.44448  -0.43189  -0.42331
 Alpha  occ. eigenvalues --   -0.40936  -0.40124  -0.39403
 Alpha virt. eigenvalues --   -0.26374  -0.06514  -0.02287  -0.02166  -0.01871
 Alpha virt. eigenvalues --    0.03087   0.03441   0.03950   0.06892   0.06940
 Alpha virt. eigenvalues --    0.06957   0.07013   0.07604   0.08245   0.11731

  Beta  occ. eigenvalues -- -235.98381 -27.62976 -23.68277 -23.68224 -23.65624
  Beta  occ. eigenvalues --  -19.34717 -19.34716 -19.34380 -19.34379 -19.30186
  Beta  occ. eigenvalues --  -19.30186  -3.31814  -2.16778  -2.16666  -2.11178
  Beta  occ. eigenvalues --   -1.15689  -1.14864  -1.14608  -1.14556  -1.10800
  Beta  occ. eigenvalues --   -1.10739  -0.65705  -0.65556  -0.65497  -0.65303
  Beta  occ. eigenvalues --   -0.61126  -0.61096  -0.61004  -0.58518  -0.55752
  Beta  occ. eigenvalues --   -0.55746  -0.52775  -0.51380  -0.45245  -0.44900
  Beta  occ. eigenvalues --   -0.44310  -0.43759  -0.40690  -0.40308
  Beta virt. eigenvalues --   -0.20402  -0.19296  -0.18690  -0.17454  -0.14146
  Beta virt. eigenvalues --   -0.06192  -0.02163  -0.02044  -0.01706   0.03314
  Beta virt. eigenvalues --    0.03682   0.04360   0.07091   0.07111   0.07209

 Mulliken charges and spin densities:
               1          2
     1  Mn   1.537070   3.906052
     2  O   -0.652503   0.002727
     3  H    0.461405   0.000725
     4  O   -0.655031   0.001479
     5  H    0.459715   0.000325
     6  O   -0.673823   0.034126
     7  H    0.435274   0.003252
     8  O   -0.652480   0.002754
     9  H    0.461395   0.000726
    10  O   -0.655042   0.001477
    11  H    0.459752   0.000326
    12  O   -0.673702   0.034183
    13  H    0.435275   0.003251
    14  H    0.435264   0.003249
    15  H    0.459721   0.000324
    16  H    0.461382   0.000724
    17  H    0.459688   0.000323
    18  H    0.435270   0.003251
    19  H    0.461370   0.000724
 Sum of Mulliken charges =   3.00000   4.00000

 Dipole moment (field-independent basis, Debye):
    X=              0.0026    Y=             -0.0002    Z=             -0.0005  Tot=              0.0027
 Quadrupole moment (field-independent basis, Debye-Ang):
   XX=             -8.6398   YY=             -7.2599   ZZ=             -6.9229
   XY=              0.0057   XZ=              0.0043   YZ=             -0.0004

 Normal termination of Gaussian 16 at Thu May 23 17:09:11 2024.
