 Gaussian 16, Revision C.02,

 ----------------------------------------------------------------------
 #p BLYP empiricaldispersion=gd3 6-31+G(2df,p) opt=(cartesian,calcall,m
 axcycles=500) freq scf=(maxcycles=500,xqc,maxconventional=50)
 ----------------------------------------------------------------------

 -----
 Title
 -----
 Symbolic Z-matrix:
 Charge =  2 Multiplicity = 5

 SCF Done:  E(UB-LYP) =  -1502.27999732     A.U. after   21 cycles
 SCF Done:  E(UB-LYP) =  -1502.30682102     A.U. after   20 cycles
 SCF Done:  E(UB-LYP) =  -1502.34830748     A.U. after   35 cycles
 SCF Done:  E(UB-LYP) =  -1502.36549450     A.U. after   25 cycles
 SCF Done:  E(UB-LYP) =  -1502.39823941     A.U. after   21 cycles
 SCF Done:  E(UB-LYP) =  -1502.44031849     A.U. after   17 cycles
 SCF Done:  E(UB-LYP) =  -1502.49630047     A.U. after   16 cycles
 SCF Done:  E(UB-LYP) =  -1502.45758350     A.U. after   16 cycles
 SCF Done:  E(UB-LYP) =  -1501.76069283     A.U. after   14 cycles
 SCF Done:  E(UB-LYP) =  -1502.50451063     A.U. after   14 cycles
 SCF Done:  E(UB-LYP) =  -1502.54111775     A.U. after   11 cycles
 SCF Done:  E(UB-LYP) =  -1502.54122597     A.U. after   11 cycles
 SCF Done:  E(UB-LYP) =  -1502.54131468     A.U. after   10 cycles
 SCF Done:  E(UB-LYP) =  -1502.54137506     A.U. after   13 cycles
 SCF Done:  E(UB-LYP) =  -1502.54139566     A.U. after   10 cycles
 SCF Done:  E(UB-LYP) =  -1502.54139745     A.U. after   10 cycles
 SCF Done:  E(UB-LYP) =  -1502.54139773     A.U. after    9 cycles
 SCF Done:  E(UB-LYP) =  -1502.54139767     A.U. after    9 cycles
 Optimization completed on the basis of negligible forces.
    -- Stationary point found.
 Normal termination of Gaussian 16 at Thu May 23 14:13:25 2024.

 ----------------------------------------------------------------------
 #P Geom=AllCheck Guess=TCheck SCRF=Check GenChk UBLYP/6-31+G(2df,p) Fr
 eq
 ----------------------------------------------------------------------

 Structure from the checkpoint file:  "Cr_2_BLYP.chk"
 -----
 Title
 -----
 Charge =  2 Multiplicity = 5

 SCF Done:  E(UB-LYP) =  -1502.54139767     A.U. after    1 cycles

  Exact polarizability:      67.953       0.000      62.871      -0.342       0.000      63.502
 Approx polarizability:      93.064       0.000      89.717      -0.281       0.000      90.838

                      1                      2                      3
                      A                      A                      A
 Frequencies --     30.4609                33.6270                61.3524
 Red. masses --      4.5901                 6.3896                 5.5078
 Frc consts  --      0.0025                 0.0043                 0.0122
 IR Inten    --      0.0000                 3.0496                 0.0000

                      4                      5                      6
                      A                      A                      A
 Frequencies --     63.9320                78.3015                98.1640
 Red. masses --      4.2892                 4.6055                 4.6408
 Frc consts  --      0.0103                 0.0166                 0.0263
 IR Inten    --      2.3655                10.7495                 0.0000

                      7                      8                      9
                      A                      A                      A
 Frequencies --    115.6802               125.5352               144.3950
 Red. masses --      6.4209                 9.8582                 3.5352
 Frc consts  --      0.0506                 0.0915                 0.0434
 IR Inten    --      9.3272                19.8380                 3.3513

                     10                     11                     12
                      A                      A                      A
 Frequencies --    168.4259               176.7878               183.1446
 Red. masses --      5.7526                 1.0188                 4.5445
 Frc consts  --      0.0961                 0.0188                 0.0898
 IR Inten    --      0.0000                 1.7648                 3.2550

                     13                     14                     15
                      A                      A                      A
 Frequencies --    200.6501               232.0309               234.0726
 Red. masses --      1.1186                 1.0113                 1.0669
 Frc consts  --      0.0265                 0.0321                 0.0344
 IR Inten    --      0.0000                 0.4560                 0.0000

                     16                     17                     18
                      A                      A                      A
 Frequencies --    240.4459               250.7789               267.3315
 Red. masses --      1.0194                 5.4977                 1.1746
 Frc consts  --      0.0347                 0.2037                 0.0495
 IR Inten    --      0.0001                 0.0000               431.9175

                     19                     20                     21
                      A                      A                      A
 Frequencies --    298.8052               302.2764               344.8759
 Red. masses --      1.0575                 1.0577                 5.8294
 Frc consts  --      0.0556                 0.0569                 0.4085
 IR Inten    --      0.0002               291.9617                 0.0000

                     22                     23                     24
                      A                      A                      A
 Frequencies --    360.0608               379.0937               382.0271
 Red. masses --      1.0423                 2.3694                 2.2947
 Frc consts  --      0.0796                 0.2006                 0.1973
 IR Inten    --      0.0000                11.0896               105.3554

                     25                     26                     27
                      A                      A                      A
 Frequencies --    394.1416               406.1903               407.5620
 Red. masses --      1.1258                 1.5876                 1.1405
 Frc consts  --      0.1030                 0.1543                 0.1116
 IR Inten    --      0.0000               280.2261                 3.5692

                     28                     29                     30
                      A                      A                      A
 Frequencies --    436.6706               445.5238               531.7855
 Red. masses --      1.1116                 1.4672                 1.1748
 Frc consts  --      0.1249                 0.1716                 0.1957
 IR Inten    --      0.0000               317.9283                 0.0000

                     31                     32                     33
                      A                      A                      A
 Frequencies --    547.3318               570.7555               584.4263
 Red. masses --      1.1743                 1.2461                 1.3251
 Frc consts  --      0.2073                 0.2392                 0.2667
 IR Inten    --      0.0000               186.1585               171.2331

                     34                     35                     36
                      A                      A                      A
 Frequencies --   1586.3748              1587.0157              1604.2183
 Red. masses --      1.0963                 1.0987                 1.0948
 Frc consts  --      1.6255                 1.6304                 1.6600
 IR Inten    --    204.4297                 0.0005               191.2637

                     37                     38                     39
                      A                      A                      A
 Frequencies --   1606.8982              1608.7018              1612.1903
 Red. masses --      1.0926                 1.0860                 1.0840
 Frc consts  --      1.6622                 1.6558                 1.6600
 IR Inten    --      0.0000               151.8224                 0.0000

                     40                     41                     42
                      A                      A                      A
 Frequencies --   3609.0983              3610.4165              3610.9614
 Red. masses --      1.0438                 1.0444                 1.0439
 Frc consts  --      8.0109                 8.0213                 8.0194
 IR Inten    --    195.1421                 0.0005               135.9344

                     43                     44                     45
                      A                      A                      A
 Frequencies --   3612.0762              3622.7799              3625.4327
 Red. masses --      1.0434                 1.0436                 1.0440
 Frc consts  --      8.0205                 8.0697                 8.0847
 IR Inten    --      0.0006               238.3262                 0.0000

                     46                     47                     48
                      A                      A                      A
 Frequencies --   3698.4695              3698.6364              3700.2902
 Red. masses --      1.0828                 1.0828                 1.0854
 Frc consts  --      8.7263                 8.7276                 8.7557
 IR Inten    --      0.0112               261.1521                 0.0082

                     49                     50                     51
                      A                      A                      A
 Frequencies --   3700.9617              3709.9193              3710.4064
 Red. masses --      1.0853                 1.0850                 1.0850
 Frc consts  --      8.7588                 8.7987                 8.8010
 IR Inten    --    392.7468                 0.0014               356.0389

 - Thermochemistry -
 -------------------
 Temperature   298.150 Kelvin.  Pressure   1.00000 Atm.
 Atom     1 has atomic number 24 and mass  51.94051

 Molecular mass:   160.00390 amu.
 Principal axes and moments of inertia in atomic units:
                           1         2         3
     Eigenvalues --  1188.436961425.184981461.08315
           X            0.99999   0.00001  -0.00354
           Y           -0.00001   1.00000  -0.00002
           Z            0.00354   0.00002   0.99999
 This molecule is an asymmetric top.
 Rotational symmetry number  1.
 Warning -- assumption of classical behavior for rotation
           may cause significant error
 Rotational temperatures (Kelvin)      0.07288     0.06077     0.05928
 Rotational constants (GHZ):           1.51858     1.26632     1.23521
 Zero-point vibrational energy     374499.9 (Joules/Mol)
                                   89.50762 (Kcal/Mol)
 Warning -- explicit consideration of  33 degrees of freedom as
           vibrations may cause significant error
 Vibrational temperatures:     43.83    48.38    88.27    91.98   112.66
          (Kelvin)            141.24   166.44   180.62   207.75   242.33
                              254.36   263.50   288.69   333.84   336.78
                              345.95   360.81   384.63   429.91   434.91
                              496.20   518.05   545.43   549.65   567.08
                              584.42   586.39   628.27   641.01   765.12
                              787.49   821.19   840.86  2282.44  2283.36
                             2308.11  2311.97  2314.56  2319.58  5192.69
                             5194.58  5195.37  5196.97  5212.37  5216.19
                             5321.27  5321.51  5323.89  5324.86  5337.75
                             5338.45

 Zero-point correction=                           0.142639 (Hartree/Particle)
 Thermal correction to Energy=                    0.161658
 Thermal correction to Enthalpy=                  0.162602
 Thermal correction to Gibbs Free Energy=         0.095096
 Sum of electronic and zero-point Energies=          -1502.398758
 Sum of electronic and thermal Energies=             -1502.379740
 Sum of electronic and thermal Enthalpies=           -1502.378796
 Sum of electronic and thermal Free Energies=        -1502.446301

                     E (Thermal)             CV                S
                      KCal/Mol        Cal/Mol-Kelvin    Cal/Mol-Kelvin
 Total                  101.442             61.330            142.077
 Electronic               0.000              0.000              3.198
 Translational            0.889              2.981             41.119
 Rotational               0.889              2.981             29.294
 Vibrational             99.664             55.368             68.466
 Vibration     1          0.594              1.984              5.799
 Vibration     2          0.594              1.983              5.603
 Vibration     3          0.597              1.973              4.413
 Vibration     4          0.597              1.972              4.332
 Vibration     5          0.600              1.964              3.933
 Vibration     6          0.604              1.950              3.490
 Vibration     7          0.608              1.936              3.171
 Vibration     8          0.610              1.928              3.013
 Vibration     9          0.616              1.909              2.745
 Vibration    10          0.625              1.881              2.453
 Vibration    11          0.628              1.871              2.362
 Vibration    12          0.631              1.863              2.296
 Vibration    13          0.638              1.839              2.127
 Vibration    14          0.653              1.792              1.863
 Vibration    15          0.654              1.789              1.847
 Vibration    16          0.658              1.778              1.800
 Vibration    17          0.663              1.761              1.725
 Vibration    18          0.672              1.733              1.613
 Vibration    19          0.692              1.676              1.424
 Vibration    20          0.694              1.669              1.404
 Vibration    21          0.723              1.586              1.190
 Vibration    22          0.735              1.555              1.122
 Vibration    23          0.749              1.515              1.043
 Vibration    24          0.751              1.509              1.031
 Vibration    25          0.761              1.483              0.984
 Vibration    26          0.771              1.457              0.940
 Vibration    27          0.772              1.454              0.935
 Vibration    28          0.797              1.390              0.837
 Vibration    29          0.805              1.371              0.809
 Vibration    30          0.887              1.180              0.583
 Vibration    31          0.903              1.146              0.550
 Vibration    32          0.927              1.095              0.503
 Vibration    33          0.941              1.065              0.477

 Optimization completed on the basis of negligible forces.
    -- Stationary point found.
 Normal termination of Gaussian 16 at Thu May 23 14:14:51 2024.
 Gaussian 16:  ES64L-G16RevC.02  7-Dec-2021

 ----------------------------------------------------------------------
 #p BLYP empiricaldispersion=gd3 scf=(maxcycles=500,xqc,maxconventional
 =50) scrf=(cpcm,solvent=water) geom=allcheck guess=read chkbasis
 ----------------------------------------------------------------------

 Structure from the checkpoint file:  "Cr_2_BLYP.chk_solvated"
 -----
 Title
 -----
 Charge =  2 Multiplicity = 5

                         Standard orientation:
 ---------------------------------------------------------------------
 Center     Atomic      Atomic             Coordinates (Angstroms)
 Number     Number       Type             X           Y           Z
 ---------------------------------------------------------------------
      1         24           0       -0.000000   -0.000005   -0.000004
      2          8           0       -0.867660   -0.000737   -1.902552
      3          1           0       -1.837520   -0.000841   -2.028933
      4          8           0        0.000282   -2.093962    0.000664
      5          1           0        0.306168   -2.669539    0.728386
      6          8           0        2.326224   -0.000012   -0.702287
      7          1           0        2.859229    0.775584   -0.967980
      8          8           0        0.867646    0.000725    1.902549
      9          1           0        0.440200    0.000958    2.781471
     10          8           0       -0.000285    2.093953   -0.000672
     11          1           0       -0.306021    2.669530   -0.728458
     12          8           0       -2.326210    0.000044    0.702310
     13          1           0       -2.859220   -0.775532    0.968052
     14          1           0       -2.859289    0.775773    0.967465
     15          1           0       -0.305628   -2.670082   -0.726620
     16          1           0       -0.440224   -0.001037   -2.781480
     17          1           0        0.305525    2.670074    0.726652
     18          1           0        2.859311   -0.775720   -0.967489
     19          1           0        1.837505    0.000873    2.028941
 ---------------------------------------------------------------------

 SCF Done:  E(UB-LYP) =  -1502.81645104     A.U. after   11 cycles

 The electronic state is 5-A.
 Alpha  occ. eigenvalues -- -214.57644 -24.31054 -20.68845 -20.68810 -20.67582
 Alpha  occ. eigenvalues --  -18.87593 -18.87592 -18.87397 -18.87397 -18.84430
 Alpha  occ. eigenvalues --  -18.84430  -2.79481  -1.79208  -1.79102  -1.77354
 Alpha  occ. eigenvalues --   -0.98734  -0.98341  -0.98201  -0.98153  -0.95223
 Alpha  occ. eigenvalues --   -0.95211  -0.54183  -0.54091  -0.53967  -0.53836
 Alpha  occ. eigenvalues --   -0.50461  -0.50438  -0.46623  -0.44376  -0.42969
 Alpha  occ. eigenvalues --   -0.42930  -0.39870  -0.39177  -0.33930  -0.33621
 Alpha  occ. eigenvalues --   -0.33106  -0.32832  -0.30102  -0.29898  -0.21291
 Alpha  occ. eigenvalues --   -0.19910  -0.19054  -0.15927
 Alpha virt. eigenvalues --   -0.12985  -0.06924  -0.03245  -0.03025  -0.02709
 Alpha virt. eigenvalues --    0.01737   0.02344   0.02996   0.06143   0.06230
 Alpha virt. eigenvalues --    0.06341   0.06412   0.06803   0.07442   0.10872

  Beta  occ. eigenvalues -- -214.57595 -24.26109 -20.65385 -20.65348 -20.63138
  Beta  occ. eigenvalues --  -18.87573 -18.87572 -18.87378 -18.87378 -18.84339
  Beta  occ. eigenvalues --  -18.84339  -2.65711  -1.66804  -1.66712  -1.61911
  Beta  occ. eigenvalues --   -0.98656  -0.98260  -0.98127  -0.98091  -0.95111
  Beta  occ. eigenvalues --   -0.95099  -0.54102  -0.54040  -0.53889  -0.53796
  Beta  occ. eigenvalues --   -0.50355  -0.50340  -0.46140  -0.43890  -0.42897
  Beta  occ. eigenvalues --   -0.42857  -0.39246  -0.38921  -0.33342  -0.33098
  Beta  occ. eigenvalues --   -0.32953  -0.32665  -0.29822  -0.29754
  Beta virt. eigenvalues --   -0.08784  -0.07891  -0.07009  -0.06820  -0.06662
  Beta virt. eigenvalues --   -0.04437  -0.03183  -0.02966  -0.02613   0.02154
  Beta virt. eigenvalues --    0.02826   0.03454   0.06241   0.06297   0.06512

 Mulliken charges and spin densities:
               1          2
     1  Cr   1.146684   3.979983
     2  O   -0.656107   0.002623
     3  H    0.403906   0.002757
     4  O   -0.654950   0.006211
     5  H    0.404629   0.001885
     6  O   -0.646792  -0.018823
     7  H    0.381134   0.006141
     8  O   -0.656105   0.002623
     9  H    0.409075   0.001191
    10  O   -0.654949   0.006211
    11  H    0.404629   0.001885
    12  O   -0.646791  -0.018823
    13  H    0.381135   0.006141
    14  H    0.381132   0.006140
    15  H    0.404629   0.001885
    16  H    0.409075   0.001191
    17  H    0.404629   0.001885
    18  H    0.381132   0.006140
    19  H    0.403906   0.002757
 Sum of Mulliken charges =   2.00000   4.00000

 Dipole moment (field-independent basis, Debye):
    X=              0.0001    Y=             -0.0000    Z=             -0.0001  Tot=              0.0001
 Quadrupole moment (field-independent basis, Debye-Ang):
   XX=            -15.9771   YY=            -15.8195   ZZ=            -17.3181
   XY=              0.0013   XZ=              1.8053   YZ=             -0.0004

 Normal termination of Gaussian 16 at Thu May 23 14:15:35 2024.
