 Gaussian 16, Revision C.02,

 ----------------------------------------------------------------------
 #p PBE1PBE empiricaldispersion=gd3 geom=allcheck guess=read chkbasis o
 pt=(loose,cartesian,calcall,maxcycles=500) freq scf=(maxcycles=500,xqc
 ,maxconventional=50)
 ----------------------------------------------------------------------

 Structure from the checkpoint file:  "Cr_2_PBE0.chk"
 -----
 Title
 -----
 Charge =  2 Multiplicity = 5

 SCF Done:  E(UPBE1PBE) =  -1501.90981075     A.U. after   17 cycles
 SCF Done:  E(UPBE1PBE) =  -1501.91213024     A.U. after   15 cycles
 SCF Done:  E(UPBE1PBE) =  -1501.91222827     A.U. after   16 cycles
 SCF Done:  E(UPBE1PBE) =  -1501.91225630     A.U. after   14 cycles
 SCF Done:  E(UPBE1PBE) =  -1501.91226857     A.U. after   14 cycles
 Optimization completed.
    -- Stationary point found.
 Normal termination of Gaussian 16 at Sat May 25 13:07:23 2024.

 --------------------------------------------------------------------
 #P Geom=AllCheck Guess=TCheck SCRF=Check GenChk UPBE1PBE/ChkBas Freq
 --------------------------------------------------------------------

 Structure from the checkpoint file:  "Cr_2_PBE0.chk"
 -----
 Title
 -----
 Charge =  2 Multiplicity = 5

 SCF Done:  E(UPBE1PBE) =  -1501.91226857     A.U. after    1 cycles

  Exact polarizability:      57.573       0.000      55.332      -0.015       0.000      55.845
 Approx polarizability:      66.622       0.000      65.951      -0.001       0.000      66.364

                      1                      2                      3
                      A                      A                      A
 Frequencies --     33.1647                41.2352                70.2396
 Red. masses --      4.7093                 6.5893                 4.3833
 Frc consts  --      0.0031                 0.0066                 0.0127
 IR Inten    --      0.0000                 3.5236                 2.2810

                      4                      5                      6
                      A                      A                      A
 Frequencies --     79.2301                87.5506               113.0740
 Red. masses --      5.5176                 4.1011                 4.9320
 Frc consts  --      0.0204                 0.0185                 0.0372
 IR Inten    --      0.0000                 6.5248                 0.0000

                      7                      8                      9
                      A                      A                      A
 Frequencies --    125.8513               135.4305               147.0360
 Red. masses --      6.8026                 9.2229                 3.5931
 Frc consts  --      0.0635                 0.0997                 0.0458
 IR Inten    --      2.0232                 9.0315                 2.8365

                     10                     11                     12
                      A                      A                      A
 Frequencies --    177.7653               191.6188               218.6893
 Red. masses --      1.0085                 5.8805                 5.2861
 Frc consts  --      0.0188                 0.1272                 0.1490
 IR Inten    --      0.0400                 0.0000                 2.5538

                     13                     14                     15
                      A                      A                      A
 Frequencies --    232.6589               234.9041               245.3875
 Red. masses --      5.5737                 1.0081                 1.0186
 Frc consts  --      0.1778                 0.0328                 0.0361
 IR Inten    --      0.0000                 0.0544                 0.0000

                     16                     17                     18
                      A                      A                      A
 Frequencies --    246.9674               254.5351               315.3953
 Red. masses --      1.1083                 1.0457                 1.1637
 Frc consts  --      0.0398                 0.0399                 0.0682
 IR Inten    --      0.0000                 0.0000               465.6521

                     19                     20                     21
                      A                      A                      A
 Frequencies --    333.2085               343.4469               352.6607
 Red. masses --      1.0404                 1.0951                 1.0731
 Frc consts  --      0.0681                 0.0761                 0.0786
 IR Inten    --      0.0000               287.4981                 0.0000

                     22                     23                     24
                      A                      A                      A
 Frequencies --    353.9350               390.7078               394.5624
 Red. masses --      5.8661                 2.0280                 2.8743
 Frc consts  --      0.4330                 0.1824                 0.2636
 IR Inten    --      0.0000               160.7593                 5.1944

                     25                     26                     27
                      A                      A                      A
 Frequencies --    398.2187               407.8512               418.4588
 Red. masses --      1.1236                 1.0143                 1.7340
 Frc consts  --      0.1050                 0.0994                 0.1789
 IR Inten    --      0.0000                 0.1113               262.7460

                     28                     29                     30
                      A                      A                      A
 Frequencies --    455.9966               463.6960               549.4223
 Red. masses --      1.1190                 1.5081                 1.1616
 Frc consts  --      0.1371                 0.1910                 0.2066
 IR Inten    --      0.0000               399.6827                 0.0000

                     31                     32                     33
                      A                      A                      A
 Frequencies --    559.6722               585.2540               594.4488
 Red. masses --      1.1691                 1.2336                 1.3232
 Frc consts  --      0.2158                 0.2489                 0.2755
 IR Inten    --      0.0000               217.4185               206.5373

                     34                     35                     36
                      A                      A                      A
 Frequencies --   1644.6889              1644.7664              1655.1869
 Red. masses --      1.0978                 1.0940                 1.0931
 Frc consts  --      1.7497                 1.7437                 1.7644
 IR Inten    --      0.0003               240.6339               233.4254

                     37                     38                     39
                      A                      A                      A
 Frequencies --   1656.0690              1656.2072              1660.7278
 Red. masses --      1.0910                 1.0861                 1.0846
 Frc consts  --      1.7629                 1.7552                 1.7625
 IR Inten    --      0.0000               196.8947                 0.0000

                     40                     41                     42
                      A                      A                      A
 Frequencies --   3802.8835              3804.6570              3812.8147
 Red. masses --      1.0440                 1.0440                 1.0448
 Frc consts  --      8.8957                 8.9036                 8.9490
 IR Inten    --    283.1287                 0.0000                 0.0000

                     43                     44                     45
                      A                      A                      A
 Frequencies --   3813.0642              3814.5925              3818.4009
 Red. masses --      1.0450                 1.0443                 1.0450
 Frc consts  --      8.9522                 8.9532                 8.9766
 IR Inten    --    160.8816               275.6385                 0.0000

                     46                     47                     48
                      A                      A                      A
 Frequencies --   3894.9364              3895.5949              3904.1931
 Red. masses --      1.0851                 1.0851                 1.0830
 Frc consts  --      9.6987                 9.7026                 9.7265
 IR Inten    --      0.0000               447.8399                 0.0000

                     49                     50                     51
                      A                      A                      A
 Frequencies --   3904.4744              3905.0817              3905.6045
 Red. masses --      1.0831                 1.0848                 1.0849
 Frc consts  --      9.7284                 9.7466                 9.7499
 IR Inten    --    331.7003                 0.0000               418.5392

 - Thermochemistry -
 -------------------
 Temperature   298.150 Kelvin.  Pressure   1.00000 Atm.
 Atom     1 has atomic number 24 and mass  51.94051

 Molecular mass:   160.00390 amu.
 Principal axes and moments of inertia in atomic units:
                           1         2         3
     Eigenvalues --  1207.156761375.244671379.78986
           X            1.00000   0.00000  -0.00144
           Y           -0.00000   1.00000   0.00000
           Z            0.00144  -0.00000   1.00000
 This molecule is an asymmetric top.
 Rotational symmetry number  1.
 Warning -- assumption of classical behavior for rotation
           may cause significant error
 Rotational temperatures (Kelvin)      0.07175     0.06298     0.06277
 Rotational constants (GHZ):           1.49503     1.31231     1.30798
 Zero-point vibrational energy     393249.7 (Joules/Mol)
                                   93.98894 (Kcal/Mol)
 Warning -- explicit consideration of  33 degrees of freedom as
           vibrations may cause significant error
 Vibrational temperatures:     47.72    59.33   101.06   113.99   125.97
          (Kelvin)            162.69   181.07   194.85   211.55   255.76
                              275.70   314.65   334.74   337.97   353.06
                              355.33   366.22   453.78   479.41   494.14
                              507.40   509.23   562.14   567.69   572.95
                              586.81   602.07   656.08   667.16   790.50
                              805.24   842.05   855.28  2366.34  2366.45
                             2381.44  2382.71  2382.91  2389.42  5471.50
                             5474.05  5485.79  5486.15  5488.35  5493.83
                             5603.94  5604.89  5617.26  5617.67  5618.54
                             5619.29

 Zero-point correction=                           0.149781 (Hartree/Particle)
 Thermal correction to Energy=                    0.168199
 Thermal correction to Enthalpy=                  0.169143
 Thermal correction to Gibbs Free Energy=         0.103662
 Sum of electronic and zero-point Energies=          -1501.762488
 Sum of electronic and thermal Energies=             -1501.744070
 Sum of electronic and thermal Enthalpies=           -1501.743126
 Sum of electronic and thermal Free Energies=        -1501.808607

                     E (Thermal)             CV                S
                      KCal/Mol        Cal/Mol-Kelvin    Cal/Mol-Kelvin
 Total                  105.546             60.523            137.817
 Electronic               0.000              0.000              3.198
 Translational            0.889              2.981             41.119
 Rotational               0.889              2.981             29.217
 Vibrational            103.769             54.562             64.283
 Vibration     1          0.594              1.983              5.631
 Vibration     2          0.594              1.981              5.199
 Vibration     3          0.598              1.968              4.147
 Vibration     4          0.600              1.963              3.910
 Vibration     5          0.601              1.958              3.714
 Vibration     6          0.607              1.939              3.215
 Vibration     7          0.611              1.927              3.008
 Vibration     8          0.613              1.918              2.867
 Vibration     9          0.617              1.906              2.710
 Vibration    10          0.628              1.870              2.352
 Vibration    11          0.634              1.851              2.212
 Vibration    12          0.646              1.813              1.970
 Vibration    13          0.653              1.791              1.858
 Vibration    14          0.655              1.787              1.841
 Vibration    15          0.660              1.770              1.763
 Vibration    16          0.661              1.768              1.752
 Vibration    17          0.665              1.755              1.699
 Vibration    18          0.703              1.644              1.334
 Vibration    19          0.715              1.609              1.244
 Vibration    20          0.722              1.589              1.196
 Vibration    21          0.729              1.570              1.154
 Vibration    22          0.730              1.567              1.149
 Vibration    23          0.758              1.490              0.997
 Vibration    24          0.762              1.482              0.983
 Vibration    25          0.764              1.474              0.969
 Vibration    26          0.772              1.453              0.934
 Vibration    27          0.781              1.430              0.897
 Vibration    28          0.814              1.348              0.778
 Vibration    29          0.821              1.331              0.755
 Vibration    30          0.905              1.141              0.545
 Vibration    31          0.915              1.119              0.524
 Vibration    32          0.942              1.063              0.476
 Vibration    33          0.952              1.044              0.459

 Normal termination of Gaussian 16 at Sat May 25 13:09:14 2024.
 Gaussian 16:  ES64L-G16RevC.02  7-Dec-2021

 ----------------------------------------------------------------------
 #p PBE1PBE empiricaldispersion=gd3 scf=(maxcycles=500,xqc,maxconventio
 nal=50) scrf=(cpcm,solvent=water) geom=allcheck guess=read chkbasis
 ----------------------------------------------------------------------

 Structure from the checkpoint file:  "Cr_2_PBE0.chk_solvated"
 -----
 Title
 -----
 Charge =  2 Multiplicity = 5

                         Standard orientation:
 ---------------------------------------------------------------------
 Center     Atomic      Atomic             Coordinates (Angstroms)
 Number     Number       Type             X           Y           Z
 ---------------------------------------------------------------------
      1         24           0        0.000000   -0.000000   -0.000000
      2          8           0       -0.287184   -0.000015   -2.060362
      3          1           0       -1.146020   -0.000020   -2.500112
      4          8           0        0.000007   -2.083827    0.000013
      5          1           0        0.101884   -2.652954    0.771422
      6          8           0        2.349170    0.000004   -0.250008
      7          1           0        2.927086    0.767075   -0.336141
      8          8           0        0.287184    0.000014    2.060361
      9          1           0       -0.397715    0.000017    2.739787
     10          8           0       -0.000007    2.083826   -0.000014
     11          1           0       -0.101882    2.652954   -0.771424
     12          8           0       -2.349170   -0.000004    0.250011
     13          1           0       -2.927086   -0.767074    0.336144
     14          1           0       -2.927089    0.767065    0.336133
     15          1           0       -0.101868   -2.652964   -0.771388
     16          1           0        0.397714   -0.000017   -2.739789
     17          1           0        0.101867    2.652964    0.771387
     18          1           0        2.927089   -0.767065   -0.336131
     19          1           0        1.146019    0.000020    2.500111
 ---------------------------------------------------------------------

 SCF Done:  E(UPBE1PBE) =  -1502.18729115     A.U. after   15 cycles

 The electronic state is 5-A.
 Alpha  occ. eigenvalues -- -215.99607 -24.84847 -21.10681 -21.10653 -21.09610
 Alpha  occ. eigenvalues --  -19.29792 -19.29791 -19.29544 -19.29544 -19.26800
 Alpha  occ. eigenvalues --  -19.26800  -3.01380  -1.95456  -1.95381  -1.94887
 Alpha  occ. eigenvalues --   -1.11512  -1.11067  -1.10883  -1.10850  -1.08168
 Alpha  occ. eigenvalues --   -1.08147  -0.61896  -0.61765  -0.61712  -0.61538
 Alpha  occ. eigenvalues --   -0.58443  -0.58397  -0.54547  -0.51599  -0.50361
 Alpha  occ. eigenvalues --   -0.50356  -0.48285  -0.47116  -0.41672  -0.41316
 Alpha  occ. eigenvalues --   -0.40524  -0.40219  -0.37815  -0.37449  -0.29970
 Alpha  occ. eigenvalues --   -0.28334  -0.27571  -0.23843
 Alpha virt. eigenvalues --   -0.05797  -0.03876  -0.00127  -0.00032   0.00046
 Alpha virt. eigenvalues --    0.04143   0.06333   0.07080   0.09919   0.09925
 Alpha virt. eigenvalues --    0.09930   0.10043   0.10111   0.10877   0.14545

  Beta  occ. eigenvalues -- -215.99559 -24.78823 -21.06073 -21.06029 -21.03563
  Beta  occ. eigenvalues --  -19.29792 -19.29791 -19.29544 -19.29544 -19.26702
  Beta  occ. eigenvalues --  -19.26702  -2.83775  -1.78123  -1.78013  -1.72374
  Beta  occ. eigenvalues --   -1.11433  -1.10990  -1.10812  -1.10798  -1.08010
  Beta  occ. eigenvalues --   -1.07988  -0.61753  -0.61696  -0.61566  -0.61484
  Beta  occ. eigenvalues --   -0.58313  -0.58294  -0.53833  -0.51149  -0.50302
  Beta  occ. eigenvalues --   -0.50299  -0.46921  -0.46657  -0.40636  -0.40397
  Beta  occ. eigenvalues --   -0.40287  -0.39949  -0.37306  -0.37241
  Beta virt. eigenvalues --   -0.03650  -0.00092  -0.00015   0.00078   0.00200
  Beta virt. eigenvalues --    0.00865   0.01203   0.01706   0.03503   0.04387
  Beta virt. eigenvalues --    0.08234   0.08944   0.10020   0.10118   0.10222

 Mulliken charges and spin densities:
               1          2
     1  Cr   1.212116   4.043998
     2  O   -0.718139  -0.008757
     3  H    0.426423   0.001717
     4  O   -0.714969  -0.006369
     5  H    0.425612   0.001452
     6  O   -0.690198  -0.020641
     7  H    0.405896   0.003864
     8  O   -0.718139  -0.008757
     9  H    0.427806   0.001420
    10  O   -0.714969  -0.006369
    11  H    0.425612   0.001452
    12  O   -0.690198  -0.020641
    13  H    0.405896   0.003864
    14  H    0.405896   0.003864
    15  H    0.425612   0.001452
    16  H    0.427806   0.001420
    17  H    0.425612   0.001452
    18  H    0.405896   0.003864
    19  H    0.426423   0.001717
 Sum of Mulliken charges =   2.00000   4.00000

 Dipole moment (field-independent basis, Debye):
    X=             -0.0000    Y=              0.0000    Z=             -0.0000  Tot=              0.0000
 Quadrupole moment (field-independent basis, Debye-Ang):
   XX=            -16.1473   YY=            -15.2930   ZZ=            -15.1981
   XY=             -0.0000   XZ=              0.5559   YZ=              0.0000

 Normal termination of Gaussian 16 at Sat May 25 13:09:43 2024.
