 Gaussian 16, Revision C.02,

 ----------------------------------------------------------------------
 #p HSEH1PBE 6-31+G(2df,p) opt=(cartesian,calcall,maxcycles=500) freq s
 cf=(maxcycles=500,xqc,maxconventional=50)
 ----------------------------------------------------------------------

 -----
 Title
 -----
 Symbolic Z-matrix:
 Charge =  2 Multiplicity = 5

 SCF Done:  E(UHSEH1PBE) =  -1501.69557853     A.U. after   23 cycles
 SCF Done:  E(UHSEH1PBE) =  -1501.71720485     A.U. after   17 cycles
 SCF Done:  E(UHSEH1PBE) =  -1501.75068811     A.U. after   28 cycles
 SCF Done:  E(UHSEH1PBE) =  -1501.81053022     A.U. after   21 cycles
 SCF Done:  E(UHSEH1PBE) =  -1501.87410670     A.U. after   19 cycles
 SCF Done:  E(UHSEH1PBE) =  -1501.86744034     A.U. after   20 cycles
 SCF Done:  E(UHSEH1PBE) =  -1501.90610505     A.U. after   16 cycles
 SCF Done:  E(UHSEH1PBE) =  -1501.92660395     A.U. after   17 cycles
 SCF Done:  E(UHSEH1PBE) =  -1501.93050807     A.U. after   19 cycles
 SCF Done:  E(UHSEH1PBE) =  -1501.94139309     A.U. after   19 cycles
 SCF Done:  E(UHSEH1PBE) =  -1501.96249290     A.U. after    2 cycles
 SCF Done:  E(UHSEH1PBE) =  -1501.96248531     A.U. after   13 cycles
 SCF Done:  E(UHSEH1PBE) =  -1501.96249290     A.U. after   13 cycles
 SCF Done:  E(UHSEH1PBE) =  -1501.96249399     A.U. after   12 cycles
 SCF Done:  E(UHSEH1PBE) =  -1501.96249169     A.U. after    8 cycles
 SCF Done:  E(UHSEH1PBE) =  -1501.96249381     A.U. after    9 cycles
 SCF Done:  E(UHSEH1PBE) =  -1501.96249280     A.U. after   13 cycles
 SCF Done:  E(UHSEH1PBE) =  -1501.96249297     A.U. after   11 cycles
 Optimization completed.
    -- Stationary point found.
 Normal termination of Gaussian 16 at Thu May 23 16:44:15 2024.

 ----------------------------------------------------------------------
 #P Geom=AllCheck Guess=TCheck SCRF=Check GenChk UHSEH1PBE/6-31+G(2df,p
 ) Freq
 ----------------------------------------------------------------------

 Structure from the checkpoint file:  "Cr_2_HSE06.chk"
 -----
 Title
 -----
 Charge =  2 Multiplicity = 5

 SCF Done:  E(UHSEH1PBE) =  -1501.96249297     A.U. after    1 cycles

  Exact polarizability:      57.850      -0.000      55.542       0.003      -0.014      56.086
 Approx polarizability:      70.116      -0.000      69.185      -0.001      -0.010      69.650

                      1                      2                      3
                      A                      A                      A
 Frequencies --     39.1125                43.0021                70.9454
 Red. masses --      4.7192                 6.5399                 4.3796
 Frc consts  --      0.0043                 0.0071                 0.0130
 IR Inten    --      0.0000                 3.6060                 2.2065

                      4                      5                      6
                      A                      A                      A
 Frequencies --     80.3596                87.0932               116.0561
 Red. masses --      5.4881                 4.1612                 5.0121
 Frc consts  --      0.0209                 0.0186                 0.0398
 IR Inten    --      0.0000                 6.5181                 0.0000

                      7                      8                      9
                      A                      A                      A
 Frequencies --    128.0747               137.3252               148.2467
 Red. masses --      6.6250                 9.1390                 3.6411
 Frc consts  --      0.0640                 0.1015                 0.0471
 IR Inten    --      1.6790                 8.4137                 2.5343

                     10                     11                     12
                      A                      A                      A
 Frequencies --    176.1099               189.5904               217.0075
 Red. masses --      1.0078                 5.8870                 5.5221
 Frc consts  --      0.0184                 0.1247                 0.1532
 IR Inten    --      0.0059                 0.0000                 1.3695

                     13                     14                     15
                      A                      A                      A
 Frequencies --    232.1828               235.2521               244.3026
 Red. masses --      1.0078                 5.5907                 1.0189
 Frc consts  --      0.0320                 0.1823                 0.0358
 IR Inten    --      0.0037                 0.0000                 0.0000

                     16                     17                     18
                      A                      A                      A
 Frequencies --    250.5865               254.2995               319.5650
 Red. masses --      1.1062                 1.0446                 1.1536
 Frc consts  --      0.0409                 0.0398                 0.0694
 IR Inten    --      0.0000                 0.0000               466.3873

                     19                     20                     21
                      A                      A                      A
 Frequencies --    330.8429               343.6083               351.1170
 Red. masses --      1.0364                 1.0953                 1.0793
 Frc consts  --      0.0668                 0.0762                 0.0784
 IR Inten    --      0.0000               282.4594                 0.0001

                     22                     23                     24
                      A                      A                      A
 Frequencies --    354.0582               391.9143               394.0717
 Red. masses --      5.8856                 2.0803                 2.8744
 Frc consts  --      0.4347                 0.1883                 0.2630
 IR Inten    --      0.0000               153.5949                 8.0486

                     25                     26                     27
                      A                      A                      A
 Frequencies --    399.8442               404.2274               419.4003
 Red. masses --      1.1237                 1.0080                 1.7000
 Frc consts  --      0.1058                 0.0970                 0.1762
 IR Inten    --      0.0000                 0.0041               270.2822

                     28                     29                     30
                      A                      A                      A
 Frequencies --    454.4373               462.0931               550.0840
 Red. masses --      1.1187                 1.5278                 1.1605
 Frc consts  --      0.1361                 0.1922                 0.2069
 IR Inten    --      0.0000               401.7955                 0.0000

                     31                     32                     33
                      A                      A                      A
 Frequencies --    561.7435               586.0932               596.8250
 Red. masses --      1.1669                 1.2331                 1.3181
 Frc consts  --      0.2170                 0.2496                 0.2766
 IR Inten    --      0.0000               217.1540               205.3841

                     34                     35                     36
                      A                      A                      A
 Frequencies --   1645.1840              1645.2966              1655.4992
 Red. masses --      1.0937                 1.0970                 1.0862
 Frc consts  --      1.7441                 1.7496                 1.7540
 IR Inten    --    231.0657                 8.8139               195.3968

                     37                     38                     39
                      A                      A                      A
 Frequencies --   1655.9559              1655.9778              1660.9129
 Red. masses --      1.0901                 1.0925                 1.0852
 Frc consts  --      1.7613                 1.7652                 1.7638
 IR Inten    --      0.0266               232.7674                 0.0000

                     40                     41                     42
                      A                      A                      A
 Frequencies --   3799.0848              3800.7706              3807.3736
 Red. masses --      1.0440                 1.0439                 1.0447
 Frc consts  --      8.8776                 8.8849                 8.9230
 IR Inten    --    284.3068                 0.0020                 0.0005

                     43                     44                     45
                      A                      A                      A
 Frequencies --   3807.6965              3808.8314              3812.8495
 Red. masses --      1.0450                 1.0443                 1.0449
 Frc consts  --      8.9266                 8.9258                 8.9504
 IR Inten    --    159.9738               275.9429                 0.0000

                     46                     47                     48
                      A                      A                      A
 Frequencies --   3890.7661              3891.4317              3898.7453
 Red. masses --      1.0851                 1.0851                 1.0831
 Frc consts  --      9.6779                 9.6817                 9.6999
 IR Inten    --      0.1871               447.6163                 0.0016

                     49                     50                     51
                      A                      A                      A
 Frequencies --   3898.9762              3899.0299              3899.5037
 Red. masses --      1.0848                 1.0832                 1.0848
 Frc consts  --      9.7159                 9.7019                 9.7192
 IR Inten    --      0.0184               331.7504               418.0215

 - Thermochemistry -
 -------------------
 Temperature   298.150 Kelvin.  Pressure   1.00000 Atm.
 Atom     1 has atomic number 24 and mass  51.94051

 Molecular mass:   160.00390 amu.
 Principal axes and moments of inertia in atomic units:
                           1         2         3
     Eigenvalues --  1211.991521378.990471381.32436
           X            1.00000  -0.00000  -0.00013
           Y            0.00000   1.00000   0.00143
           Z            0.00013  -0.00143   1.00000
 This molecule is an asymmetric top.
 Rotational symmetry number  1.
 Warning -- assumption of classical behavior for rotation
           may cause significant error
 Rotational temperatures (Kelvin)      0.07146     0.06281     0.06270
 Rotational constants (GHZ):           1.48907     1.30874     1.30653
 Zero-point vibrational energy     392993.4 (Joules/Mol)
                                   93.92767 (Kcal/Mol)
 Warning -- explicit consideration of  33 degrees of freedom as
           vibrations may cause significant error
 Vibrational temperatures:     56.27    61.87   102.07   115.62   125.31
          (Kelvin)            166.98   184.27   197.58   213.29   253.38
                              272.78   312.23   334.06   338.48   351.50
                              360.54   365.88   459.78   476.01   494.38
                              505.18   509.41   563.88   566.98   575.29
                              581.59   603.42   653.83   664.85   791.45
                              808.22   843.26   858.70  2367.05  2367.21
                             2381.89  2382.55  2382.58  2389.68  5466.04
                             5468.46  5477.96  5478.43  5480.06  5485.84
                             5597.94  5598.90  5609.42  5609.76  5609.83
                             5610.52

 Zero-point correction=                           0.149683 (Hartree/Particle)
 Thermal correction to Energy=                    0.168071
 Thermal correction to Enthalpy=                  0.169015
 Thermal correction to Gibbs Free Energy=         0.103788
 Sum of electronic and zero-point Energies=          -1501.812810
 Sum of electronic and thermal Energies=             -1501.794422
 Sum of electronic and thermal Enthalpies=           -1501.793478
 Sum of electronic and thermal Free Energies=        -1501.858705

                     E (Thermal)             CV                S
                      KCal/Mol        Cal/Mol-Kelvin    Cal/Mol-Kelvin
 Total                  105.466             60.510            137.282
 Electronic               0.000              0.000              3.198
 Translational            0.889              2.981             41.119
 Rotational               0.889              2.981             29.225
 Vibrational            103.689             54.549             63.740
 Vibration     1          0.594              1.981              5.304
 Vibration     2          0.595              1.980              5.116
 Vibration     3          0.598              1.968              4.127
 Vibration     4          0.600              1.962              3.882
 Vibration     5          0.601              1.958              3.724
 Vibration     6          0.608              1.936              3.165
 Vibration     7          0.611              1.925              2.975
 Vibration     8          0.614              1.916              2.841
 Vibration     9          0.618              1.905              2.695
 Vibration    10          0.628              1.872              2.369
 Vibration    11          0.633              1.854              2.232
 Vibration    12          0.646              1.815              1.984
 Vibration    13          0.653              1.792              1.862
 Vibration    14          0.655              1.787              1.839
 Vibration    15          0.660              1.772              1.771
 Vibration    16          0.663              1.762              1.726
 Vibration    17          0.665              1.756              1.701
 Vibration    18          0.705              1.636              1.312
 Vibration    19          0.713              1.614              1.256
 Vibration    20          0.722              1.588              1.195
 Vibration    21          0.728              1.573              1.161
 Vibration    22          0.730              1.567              1.148
 Vibration    23          0.759              1.487              0.993
 Vibration    24          0.761              1.483              0.985
 Vibration    25          0.766              1.470              0.963
 Vibration    26          0.769              1.461              0.947
 Vibration    27          0.782              1.428              0.894
 Vibration    28          0.813              1.351              0.782
 Vibration    29          0.820              1.334              0.760
 Vibration    30          0.905              1.139              0.544
 Vibration    31          0.917              1.114              0.520
 Vibration    32          0.943              1.061              0.474
 Vibration    33          0.955              1.039              0.455

 Normal termination of Gaussian 16 at Thu May 23 16:46:40 2024.
 Gaussian 16:  ES64L-G16RevC.02  7-Dec-2021

 ----------------------------------------------------------------------
 #p HSEH1PBE scf=(maxcycles=500,xqc,maxconventional=50) scrf=(cpcm,solv
 ent=water) geom=allcheck guess=read chkbasis
 ----------------------------------------------------------------------

 Structure from the checkpoint file:  "Cr_2_HSE06.chk_solvated"
 -----
 Title
 -----
 Charge =  2 Multiplicity = 5

                         Standard orientation:
 ---------------------------------------------------------------------
 Center     Atomic      Atomic             Coordinates (Angstroms)
 Number     Number       Type             X           Y           Z
 ---------------------------------------------------------------------
      1         24           0       -0.000003    0.000011   -0.000130
      2          8           0       -0.033843    0.046000   -2.081332
      3          1           0       -0.825016    0.058027   -2.633307
      4          8           0       -0.000222   -2.085654   -0.046047
      5          1           0        0.011667   -2.671905    0.719293
      6          8           0        2.366697    0.000431   -0.029125
      7          1           0        2.950891    0.767606   -0.022170
      8          8           0        0.033843   -0.045967    2.081060
      9          1           0       -0.736754   -0.058502    2.661373
     10          8           0        0.000214    2.085675    0.045680
     11          1           0        0.012263    2.637801    0.835987
     12          8           0       -2.366683   -0.000508    0.030076
     13          1           0       -2.950840   -0.767711    0.023091
     14          1           0       -2.950787    0.766296    0.056967
     15          1           0       -0.012109   -2.637735   -0.836387
     16          1           0        0.736748    0.058602   -2.661654
     17          1           0       -0.011839    2.671883   -0.719691
     18          1           0        2.950765   -0.766403   -0.055903
     19          1           0        0.825030   -0.058052    2.633013
 ---------------------------------------------------------------------

 SCF Done:  E(UHSEH1PBE) =  -1502.23748223     A.U. after   13 cycles

 The electronic state is 5-A.
 Alpha  occ. eigenvalues -- -215.98789 -24.83413 -21.08762 -21.08730 -21.07680
 Alpha  occ. eigenvalues --  -19.28392 -19.28391 -19.28132 -19.28132 -19.25419
 Alpha  occ. eigenvalues --  -19.25419  -2.99981  -1.93928  -1.93852  -1.93362
 Alpha  occ. eigenvalues --   -1.09850  -1.09417  -1.09211  -1.09185  -1.06520
 Alpha  occ. eigenvalues --   -1.06500  -0.60366  -0.60238  -0.60155  -0.59985
 Alpha  occ. eigenvalues --   -0.56925  -0.56881  -0.52985  -0.50041  -0.48838
 Alpha  occ. eigenvalues --   -0.48824  -0.46729  -0.45583  -0.40135  -0.39770
 Alpha  occ. eigenvalues --   -0.38998  -0.38681  -0.36294  -0.35935  -0.28424
 Alpha  occ. eigenvalues --   -0.26796  -0.26027  -0.22339
 Alpha virt. eigenvalues --   -0.07315  -0.05068  -0.01261  -0.01159  -0.01113
 Alpha virt. eigenvalues --    0.03575   0.04988   0.05693   0.08577   0.08618
 Alpha virt. eigenvalues --    0.08825   0.08859   0.09049   0.09542   0.13341

  Beta  occ. eigenvalues -- -215.98752 -24.77566 -21.04269 -21.04217 -21.01767
  Beta  occ. eigenvalues --  -19.28389 -19.28388 -19.28129 -19.28129 -19.25318
  Beta  occ. eigenvalues --  -19.25318  -2.82423  -1.76729  -1.76602  -1.70990
  Beta  occ. eigenvalues --   -1.09768  -1.09337  -1.09137  -1.09130  -1.06360
  Beta  occ. eigenvalues --   -1.06340  -0.60224  -0.60168  -0.60011  -0.59931
  Beta  occ. eigenvalues --   -0.56796  -0.56777  -0.52285  -0.49607  -0.48781
  Beta  occ. eigenvalues --   -0.48761  -0.45386  -0.45131  -0.39107  -0.38858
  Beta  occ. eigenvalues --   -0.38761  -0.38412  -0.35791  -0.35729
  Beta virt. eigenvalues --   -0.04818  -0.01791  -0.01137  -0.01037  -0.00940
  Beta virt. eigenvalues --   -0.00831  -0.00440   0.00007   0.01967   0.03828
  Beta virt. eigenvalues --    0.06753   0.07422   0.08672   0.08800   0.09132

 Mulliken charges and spin densities:
               1          2
     1  Cr   1.182837   4.037537
     2  O   -0.711245  -0.007207
     3  H    0.426542   0.001550
     4  O   -0.708012  -0.004883
     5  H    0.425183   0.001435
     6  O   -0.686523  -0.020505
     7  H    0.405352   0.003944
     8  O   -0.711210  -0.007199
     9  H    0.426719   0.001516
    10  O   -0.708009  -0.004883
    11  H    0.425195   0.001434
    12  O   -0.686520  -0.020505
    13  H    0.405351   0.003944
    14  H    0.405353   0.003944
    15  H    0.425194   0.001434
    16  H    0.426726   0.001515
    17  H    0.425181   0.001435
    18  H    0.405351   0.003944
    19  H    0.426535   0.001550
 Sum of Mulliken charges =   2.00000   4.00000

 Dipole moment (field-independent basis, Debye):
    X=             -0.0000    Y=              0.0000    Z=             -0.0010  Tot=              0.0010
 Quadrupole moment (field-independent basis, Debye-Ang):
   XX=            -16.2399   YY=            -15.2624   ZZ=            -15.0401
   XY=             -0.0021   XZ=              0.0672   YZ=             -0.0026

 Normal termination of Gaussian 16 at Thu May 23 16:47:53 2024.
