   * xtb version 6.6.0 (conda-forge) compiled by 'runner@Mac-1676020848589.local' on 2023-02-10
          program call               : xtb Fe_39H2O.xyz --opt extreme --gfn2 --chrg 2 --uhf 5 --alpb water

   ID    Z sym.   atoms
    1   26 Fe     1
    2    8 O      2-7, 20-31, 56, 59, 62, 65, 68, 71, 74, 77, 80, 83, 86, 89,
                  92, 95, 98, 101, 104, 107, 110, 113, 116
    3    1 H      8-19, 32-55, 57, 58, 60, 61, 63, 64, 66, 67, 69, 70, 72,
                  73, 75, 76, 78, 79, 81, 82, 84, 85, 87, 88, 90, 91, 93, 94,
                  96, 97, 99, 100, 102, 103, 105, 106, 108, 109, 111, 112,
                  114, 115, 117, 118

      * Solvation model:               ALPB
        Solvent                        water
        Solvent mass                       1.8000E+01 g/mol
          :  Hamiltonian                  GFN2-xTB          :
 * total energy  :  -200.8432888 Eh     change       -0.1254250E-09 Eh
 * total energy  :  -201.0027529 Eh     change       -0.1594641E+00 Eh
 * total energy  :  -201.0514582 Eh     change       -0.4870530E-01 Eh
 * total energy  :  -201.0726063 Eh     change       -0.2114806E-01 Eh
 * total energy  :  -201.0870662 Eh     change       -0.1445993E-01 Eh
 * total energy  :  -201.0967311 Eh     change       -0.9664890E-02 Eh
 * total energy  :  -201.1046672 Eh     change       -0.7936084E-02 Eh
 * total energy  :  -201.1095723 Eh     change       -0.4905166E-02 Eh
 * total energy  :  -201.1163821 Eh     change       -0.6809760E-02 Eh
 * total energy  :  -201.1176006 Eh     change       -0.1218538E-02 Eh
 * total energy  :  -201.2506623 Eh     change       -0.1143781E-05 Eh
 * total energy  :  -201.2506631 Eh     change       -0.7908185E-06 Eh
 * total energy  :  -201.2506635 Eh     change       -0.3758573E-06 Eh
 * total energy  :  -201.2506639 Eh     change       -0.3872068E-06 Eh
 * total energy  :  -201.2506641 Eh     change       -0.2355542E-06 Eh
 * total energy  :  -201.2506641 Eh     change        0.1182170E-07 Eh
 * total energy  :  -201.2506641 Eh     change        0.2950179E-07 Eh
 * total energy  :  -201.2506643 Eh     change       -0.1957802E-06 Eh
 * total energy  :  -201.2506643 Eh     change       -0.5057842E-08 Eh
   *** GEOMETRY OPTIMIZATION CONVERGED AFTER 540 ITERATIONS ***

 final structure:
================
118
 xtb: 6.6.0 (conda-forge)
Fe          -0.00968793927213       -0.41665804273181        0.24318664404696
O           -1.85201332134213       -1.06237927709103        1.70266292646212
O            1.39835525126672        0.99444020272914        1.68960129480582
O            2.05452697876335       -0.07253471049372       -1.02409498046266
O           -0.57844385373967       -0.10515878264846       -2.16897604710465
O           -1.28907057532499        1.71217813927938        0.28162106342083
O            1.09044061004746       -2.20721363233015        1.58879440120655
H           -2.16949299050867        1.56022405038213       -0.09062941215154
H           -0.79614049924065        2.22151504319750       -0.38564026476096
H            1.27252573971420       -1.89793071767346        2.48555198927530
H            1.95830233175263       -2.38913637119247        1.18331687014244
H           -2.30199375615496       -0.28669844098946        2.06943467814814
H           -2.52670906230713       -1.75284115278953        1.63484016607990
H            2.80276833229808        0.47933520750249       -0.76790624128398
H            2.43019461687018       -0.82582190827539       -1.49973366222186
H            1.50601422068927        1.86677755142039        1.28350734317331
H            2.27795890694299        0.57856704951796        1.61879527070707
H           -1.53400159364927       -0.29777445006517       -2.22671342766205
H           -0.12659758256386       -0.80627225682553       -2.65529159670808
O           -2.97434558030500        1.33030523097778        2.45791281413323
O            3.48867153991516       -2.68868820903873        0.39014943347901
O           -3.22571027625668       -0.64434685830117       -2.03537992457350
O           -0.49731933188489       -2.72876834590279       -0.63420543233930
O           -4.00534276436704        1.09138196474066       -0.09930052447381
O           -3.13289719919579       -3.13790085783706       -1.07843906506840
O            1.98408798212057       -0.66048453751799        3.80289238869043
O            3.85233121471760       -0.29760209886343        1.73236524240052
O            2.04598696191800        3.16168339461055        0.08596502082003
O            0.21341293147387        2.50804181814100       -1.81514741251823
O            4.19627571325896        1.57330675063701       -0.21599629416482
O            3.06389179793967       -2.30232756142141       -2.29852216667783
H           -3.21288321595459       -2.23403147528955       -1.46770555238850
H           -3.51563015046213       -3.75522934273843       -1.71347152190131
H           -2.99705017919172        1.58039217867457        3.39158639811091
H           -2.19644116563101        1.74801834098001        2.05218193755450
H           -4.78224235269119        1.65119265324663       -0.22209133642902
H           -3.84812044209537        1.04172593082086        0.85838639648205
H           -0.19740315472701        3.02805552395051       -2.51815005933511
H            0.14383900503428        1.56790889578656       -2.06767785569397
H           -3.76095300932494       -0.41809969323377       -2.80987088575810
H           -3.52970987229627       -0.06971063780795       -1.30606504723743
H           -1.44625181614246       -2.94884701493659       -0.69710403054224
H           -0.13962005274880       -3.19112964764192        0.12829957337641
H            3.70653640739033       -2.34517662569998       -3.01583181858574
H            2.18059838725030       -2.48283381448052       -2.68491793586080
H            4.98035851698042        2.04840451219884       -0.51406623946496
H            3.49181522727673        2.24553441692465       -0.06860729726469
H            2.10467711917118        4.12534934082805        0.06388647980371
H            1.46577799716707        2.89949697769789       -0.65810943844145
H            4.17985736186091        0.35126323852880        1.08380237046295
H            3.80149138160151       -1.14155142634448        1.24995596119660
H            1.45445836474166        0.03617308140106        3.37721851972745
H            2.83667805281224       -0.61080936895105        3.34031583708299
H            3.80349243986928       -3.59064825601983        0.52671927293045
H            3.36377287747789       -2.58113540605015       -0.57206059771118
O            2.11544590674569        2.39602290821136        7.48538012735077
H            1.98243669930484        2.22565223137100        8.42054820710349
H            2.17159697352487        1.51754575332489        7.06072124662645
O           -2.39272363969747       -3.24145944591223        6.54350694586115
H           -1.62732341480357       -2.91271014313544        6.05800002830408
H           -3.08196478941611       -3.40727461039177        5.89247440637268
O            0.16396990613700        6.15260375204269        4.38981180127607
H            0.19323435245877        5.21233903419430        4.17698185808883
H            0.50415673353271        6.24485113293259        5.28303847913529
O            2.26989289056951       -0.18153246924911        6.44609658409137
H            2.93583424519954       -0.80847212296823        6.73674389133835
H            2.12556717142418       -0.36422103589576        5.48576658114601
O           -3.03620692698999        1.75238550695432        5.24231829266673
H           -2.20981447648758        1.64132993218680        5.72290193295791
H           -3.71351183392581        1.27853337458176        5.73135798843276
O            5.63380787384358        4.03961055989377        3.84539348230783
H            5.99738364673859        3.21538520484527        4.18247201379974
H            4.68448321249384        4.00701775470380        4.00699418201611
O           -0.86462220676447       -7.12878929448876        2.62106370254021
H           -0.60530788188982       -6.47928604817719        3.28336226961768
H           -1.73736964046767       -6.87163323748541        2.30668057752405
O           -3.32228377771265        6.92350774133455        0.50030597402909
H           -3.05967884328700        6.11345394139696        0.95296441151578
H           -3.21254578801689        7.64081574843743        1.12931365479591
O            4.16064865525297       -5.43544757231926        0.78088234612465
H            3.43209685229098       -6.04694619360687        0.92657416467306
H            4.95817148436602       -5.84798587133212        1.11945514363623
O           -4.01169874950261       -2.79806348741549        1.43563953470153
H           -3.73593217467321       -3.02372448835159        0.51958320648208
H           -4.84763994946578       -2.33473598365638        1.35535317951672
O            2.22220494447216        6.00252482383850       -0.04881901104778
H            2.81630251809108        6.48469977508134        0.53160002972137
H            1.42245259284461        6.52799645194194       -0.14328267612434
O            0.49626141063283       -2.57991832804239       -3.09326485555384
H            0.11116754588431       -3.26817007105068       -3.63655785086688
H            0.16143805783536       -2.71407190651697       -2.17315570797087
O           -6.23723331464756        2.83724223759287       -0.32906406232058
H           -6.32928366506562        3.50336585334182       -1.01557483669941
H           -6.69696281924639        3.16001188147728        0.45043782294301
O            6.56897021215940        3.05841078535448       -0.82761529478769
H            7.39275964248451        2.70302344116117       -0.48358172155877
H            6.59078680163986        4.01060822835265       -0.69528079028176
O           -4.24253756923200       -4.91684983658658       -3.00332776210621
H           -3.82114026559566       -5.71637845495969       -3.32899670532298
H           -5.02561140389142       -4.76235712609146       -3.53769577001636
O           -1.09567888441115        4.20621057815858       -3.67934984410352
H           -0.62306227734435        4.81238715991253       -4.25407492620483
H           -1.87032714952559        4.66647803188449       -3.34448792984693
O            4.97585020550339       -2.35983844539996       -4.42592785255002
H            5.87327076644239       -2.03965797542703       -4.30225518517363
H            4.81422117184506       -2.41950798937007       -5.37133521096714
O           -4.53151226601430        0.08993665362006       -4.41024547047986
H           -4.39830751002769       -0.47360283534660       -5.17715496279890
H           -4.42217214447004        0.99995385028918       -4.70119198903286
O            3.69296174568485        3.01147873546406       -5.40838358976198
H            3.70587510098571        2.16386813457373       -4.94944878140508
H            3.86125155543600        3.68542547833903       -4.74277664937012
O           -2.46403853958218       -4.17746867758091       -7.51710684470901
H           -1.95936875592928       -3.42222058213396       -7.83625768012766
H           -2.66201178524194       -4.72904998812411       -8.27808100154107
O           -0.63726763246431        1.05480258904971       -7.75883650311340
H           -0.28579689209681        0.84635133943576       -6.88520549208410
H           -0.09711535488439        1.76628823007144       -8.11243244829435

          :  Hamiltonian                  GFN2-xTB          :
         :: total energy            -201.250664264465 Eh    ::
         :: gradient norm              0.000054320883 Eh/a0 ::
         :: HOMO-LUMO gap              7.035158612810 eV    ::
         :: SCC energy              -202.504887837334 Eh    ::
         :: -> dispersion             -0.062022020976 Eh    ::
         :: -> Gsolv                  -0.624792676903 Eh    ::
         :: repulsion energy           1.250456493038 Eh    ::

    * Orbital Energies and Occupations

         #    Occupation            Energy/Eh            Energy/eV
      -------------------------------------------------------------
         1        2.0000           -0.6645602             -18.0836
       ...           ...                  ...                  ...
       149        2.0000           -0.4002783             -10.8921
       150        2.0000           -0.3989088             -10.8549
       151        2.0000           -0.3971482             -10.8070
       152        2.0000           -0.3947095             -10.7406
       153        2.0000           -0.3939809             -10.7208
       154        2.0000           -0.3917967             -10.6613
       155        2.0000           -0.3830393             -10.4230
       156        2.0000           -0.3824706             -10.4076
       157        1.5991           -0.3073380              -8.3631
       158        1.3990           -0.3065669              -8.3421
       159        1.0017           -0.3009179              -8.1884
       160        1.0002           -0.2987904              -8.1305
       161        1.0000           -0.2924485              -7.9579 (HOMO)
       162                         -0.0339111              -0.9228 (LUMO)
       163                          0.0172300               0.4689
       164                          0.0344064               0.9362
       165                          0.0527491               1.4354
       166                          0.0618077               1.6819
       167                          0.0786300               2.1396
       168                          0.0830070               2.2587
       169                          0.0876428               2.3849
       170                          0.0910073               2.4764
       171                          0.0960698               2.6142
       172                          0.0972529               2.6464
       ...                                ...                  ...
       243                          0.9672410              26.3200
      -------------------------------------------------------------
                  HL-Gap            0.2585373 Eh            7.0352 eV

     #   Z          covCN         q      C6AA      α(0)
     1  26 Fe       0.629     1.170   391.449    57.333
     2   8 O        1.729    -0.625    25.742     6.851
     3   8 O        1.707    -0.635    25.983     6.882
     4   8 O        1.722    -0.617    25.551     6.825
     5   8 O        1.683    -0.629    25.852     6.864
     6   8 O        1.692    -0.631    25.907     6.872
     7   8 O        1.685    -0.631    25.891     6.870
     8   1 H        0.805     0.353     0.581     1.197
     9   1 H        0.804     0.356     0.575     1.191
    10   1 H        0.805     0.345     0.600     1.217
    11   1 H        0.804     0.350     0.589     1.206
    12   1 H        0.804     0.345     0.600     1.217
    13   1 H        0.805     0.343     0.605     1.222
    14   1 H        0.805     0.348     0.592     1.209
    15   1 H        0.805     0.345     0.601     1.217
    16   1 H        0.804     0.356     0.573     1.189
    17   1 H        0.804     0.360     0.565     1.181
    18   1 H        0.803     0.358     0.569     1.185
    19   1 H        0.805     0.353     0.582     1.198
    20   8 O        1.609    -0.670    26.920     7.003
    21   8 O        1.608    -0.654    26.517     6.950
    22   8 O        1.608    -0.643    26.252     6.915
    23   8 O        1.671    -0.618    25.592     6.830
    24   8 O        1.609    -0.654    26.520     6.950
    25   8 O        1.607    -0.664    26.785     6.985
    26   8 O        1.608    -0.681    27.201     7.039
    27   8 O        1.608    -0.692    27.508     7.079
    28   8 O        1.608    -0.660    26.677     6.971
    29   8 O        1.608    -0.663    26.736     6.979
    30   8 O        1.607    -0.675    27.065     7.021
    31   8 O        1.608    -0.667    26.860     6.995
    32   1 H        0.802     0.363     0.560     1.176
    33   1 H        0.805     0.319     0.666     1.282
    34   1 H        0.805     0.322     0.660     1.276
    35   1 H        0.804     0.366     0.552     1.167
    36   1 H        0.805     0.319     0.666     1.282
    37   1 H        0.804     0.351     0.587     1.203
    38   1 H        0.805     0.324     0.652     1.268
    39   1 H        0.803     0.367     0.551     1.166
    40   1 H        0.804     0.325     0.651     1.267
    41   1 H        0.803     0.354     0.580     1.197
    42   1 H        0.803     0.361     0.564     1.180
    43   1 H        0.805     0.358     0.569     1.185
    44   1 H        0.805     0.316     0.673     1.289
    45   1 H        0.803     0.354     0.580     1.196
    46   1 H        0.805     0.309     0.693     1.308
    47   1 H        0.802     0.355     0.577     1.193
    48   1 H        0.805     0.317     0.672     1.288
    49   1 H        0.803     0.359     0.567     1.183
    50   1 H        0.804     0.342     0.606     1.223
    51   1 H        0.804     0.345     0.601     1.217
    52   1 H        0.804     0.368     0.548     1.163
    53   1 H        0.804     0.352     0.584     1.200
    54   1 H        0.805     0.319     0.666     1.282
    55   1 H        0.803     0.353     0.581     1.198
    56   8 O        1.609    -0.708    27.930     7.133
    57   1 H        0.805     0.339     0.614     1.231
    58   1 H        0.803     0.341     0.610     1.226
    59   8 O        1.610    -0.739    28.771     7.239
    60   1 H        0.805     0.376     0.530     1.144
    61   1 H        0.805     0.363     0.559     1.175
    62   8 O        1.610    -0.727    28.442     7.198
    63   1 H        0.805     0.380     0.523     1.136
    64   1 H        0.805     0.347     0.595     1.211
    65   8 O        1.607    -0.712    28.043     7.147
    66   1 H        0.805     0.341     0.610     1.227
    67   1 H        0.802     0.351     0.586     1.203
    68   8 O        1.610    -0.698    27.662     7.099
    69   1 H        0.805     0.368     0.549     1.163
    70   1 H        0.805     0.352     0.583     1.199
    71   8 O        1.610    -0.730    28.532     7.209
    72   1 H        0.805     0.359     0.568     1.184
    73   1 H        0.805     0.372     0.540     1.154
    74   8 O        1.610    -0.733    28.597     7.218
    75   1 H        0.805     0.368     0.547     1.162
    76   1 H        0.805     0.364     0.556     1.171
    77   8 O        1.610    -0.726    28.420     7.195
    78   1 H        0.805     0.379     0.525     1.138
    79   1 H        0.805     0.347     0.594     1.211
    80   8 O        1.611    -0.696    27.596     7.090
    81   1 H        0.805     0.365     0.555     1.170
    82   1 H        0.805     0.347     0.595     1.211
    83   8 O        1.608    -0.701    27.735     7.108
    84   1 H        0.802     0.351     0.586     1.203
    85   1 H        0.805     0.335     0.623     1.240
    86   8 O        1.611    -0.695    27.571     7.087
    87   1 H        0.805     0.352     0.584     1.201
    88   1 H        0.805     0.362     0.561     1.177
    89   8 O        1.607    -0.696    27.600     7.090
    90   1 H        0.806     0.338     0.616     1.233
    91   1 H        0.802     0.369     0.545     1.160
    92   8 O        1.611    -0.696    27.595     7.090
    93   1 H        0.805     0.358     0.570     1.186
    94   1 H        0.805     0.355     0.576     1.192
    95   8 O        1.610    -0.695    27.566     7.086
    96   1 H        0.805     0.354     0.580     1.196
    97   1 H        0.805     0.358     0.570     1.186
    98   8 O        1.611    -0.695    27.568     7.086
    99   1 H        0.805     0.356     0.575     1.191
   100   1 H        0.805     0.355     0.576     1.192
   101   8 O        1.611    -0.691    27.483     7.076
   102   1 H        0.805     0.350     0.589     1.206
   103   1 H        0.805     0.361     0.564     1.179
   104   8 O        1.611    -0.698    27.653     7.097
   105   1 H        0.805     0.356     0.574     1.190
   106   1 H        0.805     0.357     0.572     1.188
   107   8 O        1.610    -0.697    27.641     7.096
   108   1 H        0.805     0.357     0.572     1.188
   109   1 H        0.805     0.363     0.559     1.175
   110   8 O        1.610    -0.737    28.712     7.232
   111   1 H        0.805     0.376     0.531     1.145
   112   1 H        0.805     0.361     0.563     1.179
   113   8 O        1.610    -0.714    28.088     7.153
   114   1 H        0.805     0.365     0.554     1.169
   115   1 H        0.805     0.349     0.590     1.207
   116   8 O        1.610    -0.730    28.521     7.208
   117   1 H        0.805     0.380     0.524     1.137
   118   1 H        0.805     0.351     0.587     1.203

Wiberg/Mayer (AO) data.
largest (>0.10) Wiberg bond orders for each atom

     #   Z sym  total        # sym  WBO       # sym  WBO       # sym  WBO
 ---------------------------------------------------------------------------
     1  26 Fe   1.354 --     2 O    0.196     4 O    0.196     3 O    0.192
                             6 O    0.187     7 O    0.180     5 O    0.179
                            23 O    0.158
     2   8 O    1.923 --    13 H    0.839    12 H    0.833     1 Fe   0.196
     3   8 O    1.929 --    16 H    0.833    17 H    0.815     1 Fe   0.192
     4   8 O    1.931 --    14 H    0.842    15 H    0.835     1 Fe   0.196
     5   8 O    1.936 --    19 H    0.844    18 H    0.810     1 Fe   0.179
     6   8 O    1.927 --     8 H    0.841     9 H    0.816     1 Fe   0.187
     7   8 O    1.916 --    10 H    0.848    11 H    0.822     1 Fe   0.180
     8   1 H    0.875 --     6 O    0.841
     9   1 H    0.873 --     6 O    0.816
    10   1 H    0.880 --     7 O    0.848
    11   1 H    0.877 --     7 O    0.822
    12   1 H    0.880 --     2 O    0.833
    13   1 H    0.880 --     2 O    0.839
    14   1 H    0.877 --     4 O    0.842
    15   1 H    0.880 --     4 O    0.835
    16   1 H    0.872 --     3 O    0.833
    17   1 H    0.870 --     3 O    0.815
    18   1 H    0.871 --     5 O    0.810
    19   1 H    0.875 --     5 O    0.844
    20   8 O    1.835 --    34 H    0.857    35 H    0.843
    21   8 O    1.860 --    54 H    0.868    55 H    0.828
    22   8 O    1.900 --    40 H    0.857    41 H    0.825
    23   8 O    1.958 --    43 H    0.854    42 H    0.813     1 Fe   0.158
    24   8 O    1.843 --    36 H    0.866    37 H    0.839
    25   8 O    1.872 --    33 H    0.867    32 H    0.800
    26   8 O    1.853 --    53 H    0.849    52 H    0.837
    27   8 O    1.819 --    51 H    0.839    50 H    0.833
    28   8 O    1.858 --    48 H    0.865    49 H    0.821
    29   8 O    1.859 --    38 H    0.860    39 H    0.822
    30   8 O    1.824 --    46 H    0.871    47 H    0.809
    31   8 O    1.839 --    44 H    0.869    45 H    0.815
    32   1 H    0.869 --    25 O    0.800
    33   1 H    0.898 --    25 O    0.867
    34   1 H    0.897 --    20 O    0.857
    35   1 H    0.866 --    20 O    0.843
    36   1 H    0.898 --    24 O    0.866
    37   1 H    0.877 --    24 O    0.839
    38   1 H    0.895 --    29 O    0.860
    39   1 H    0.865 --    29 O    0.822
    40   1 H    0.894 --    22 O    0.857
    41   1 H    0.875 --    22 O    0.825
    42   1 H    0.869 --    23 O    0.813
    43   1 H    0.872 --    23 O    0.854
    44   1 H    0.900 --    31 O    0.869
    45   1 H    0.875 --    31 O    0.815
    46   1 H    0.904 --    30 O    0.871
    47   1 H    0.874 --    30 O    0.809
    48   1 H    0.899 --    28 O    0.865
    49   1 H    0.871 --    28 O    0.821
    50   1 H    0.883 --    27 O    0.833
    51   1 H    0.881 --    27 O    0.839
    52   1 H    0.865 --    26 O    0.837
    53   1 H    0.876 --    26 O    0.849
    54   1 H    0.898 --    21 O    0.868
    55   1 H    0.875 --    21 O    0.828
    56   8 O    1.749 --    57 H    0.885    58 H    0.844
    57   1 H    0.885 --    56 O    0.885
    58   1 H    0.884 --    56 O    0.844
    59   8 O    1.726 --    61 H    0.868    60 H    0.858
    60   1 H    0.858 --    59 O    0.858
    61   1 H    0.868 --    59 O    0.868
    62   8 O    1.735 --    64 H    0.879    63 H    0.856
    63   1 H    0.856 --    62 O    0.856
    64   1 H    0.879 --    62 O    0.879
    65   8 O    1.772 --    66 H    0.880    67 H    0.807
    66   1 H    0.884 --    65 O    0.880
    67   1 H    0.877 --    65 O    0.807
    68   8 O    1.779 --    70 H    0.874    69 H    0.863
    69   1 H    0.865 --    68 O    0.863
    70   1 H    0.876 --    68 O    0.874
    71   8 O    1.733 --    72 H    0.871    73 H    0.862
    72   1 H    0.871 --    71 O    0.871
    73   1 H    0.862 --    71 O    0.862
    74   8 O    1.731 --    76 H    0.867    75 H    0.864
    75   1 H    0.864 --    74 O    0.864
    76   1 H    0.867 --    74 O    0.867
    77   8 O    1.736 --    79 H    0.879    78 H    0.856
    78   1 H    0.856 --    77 O    0.856
    79   1 H    0.879 --    77 O    0.879
    80   8 O    1.773 --    82 H    0.876    81 H    0.865
    81   1 H    0.867 --    80 O    0.865
    82   1 H    0.879 --    80 O    0.876
    83   8 O    1.788 --    85 H    0.885    84 H    0.816
    84   1 H    0.877 --    83 O    0.816
    85   1 H    0.887 --    83 O    0.885
    86   8 O    1.778 --    87 H    0.874    88 H    0.867
    87   1 H    0.876 --    86 O    0.874
    88   1 H    0.869 --    86 O    0.867
    89   8 O    1.821 --    90 H    0.878    91 H    0.794
    90   1 H    0.885 --    89 O    0.878
    91   1 H    0.863 --    89 O    0.794
    92   8 O    1.775 --    94 H    0.871    93 H    0.869
    93   1 H    0.872 --    92 O    0.869
    94   1 H    0.874 --    92 O    0.871
    95   8 O    1.777 --    96 H    0.873    97 H    0.870
    96   1 H    0.875 --    95 O    0.873
    97   1 H    0.872 --    95 O    0.870
    98   8 O    1.772 --    99 H    0.871   100 H    0.871
    99   1 H    0.874 --    98 O    0.871
   100   1 H    0.874 --    98 O    0.871
   101   8 O    1.781 --   102 H    0.875   103 H    0.868
   102   1 H    0.878 --   101 O    0.875
   103   1 H    0.870 --   101 O    0.868
   104   8 O    1.770 --   105 H    0.871   106 H    0.869
   105   1 H    0.873 --   104 O    0.871
   106   1 H    0.872 --   104 O    0.869
   107   8 O    1.781 --   108 H    0.870   109 H    0.866
   108   1 H    0.872 --   107 O    0.870
   109   1 H    0.868 --   107 O    0.866
   110   8 O    1.728 --   112 H    0.869   111 H    0.858
   111   1 H    0.859 --   110 O    0.858
   112   1 H    0.870 --   110 O    0.869
   113   8 O    1.745 --   115 H    0.878   114 H    0.867
   114   1 H    0.867 --   113 O    0.867
   115   1 H    0.878 --   113 O    0.878
   116   8 O    1.733 --   118 H    0.877   117 H    0.856
   117   1 H    0.856 --   116 O    0.856
   118   1 H    0.877 --   116 O    0.877
 ---------------------------------------------------------------------------

molecular dipole:
                 x           y           z       tot (Debye)
 q only:       -0.639      -0.203      -3.890
   full:       -0.628       0.190      -4.962      12.723

           -------------------------------------------------
          | TOTAL ENERGY             -201.250664264465 Eh   |
          | GRADIENT NORM               0.000054320883 Eh/α |
          | HOMO-LUMO GAP               7.035158612810 eV   |
           -------------------------------------------------

 * finished run on 2024/05/10 at 17:57:50.118
