   * xtb version 6.6.0 (conda-forge) compiled by 'runner@Mac-1676020848589.local' on 2023-02-10
          program call               : xtb Fe_39H2O.xyz --opt extreme --gfn2 --chrg 0 --uhf 5 --alpb water

   ID    Z sym.   atoms
    1   26 Fe     1
    2    8 O      2-7, 20-31, 56, 59, 62, 65, 68, 71, 74, 77, 80, 83, 86, 89,
                  92, 95, 98, 101, 104, 107, 110, 113, 116
    3    1 H      8-19, 32-55, 57, 58, 60, 61, 63, 64, 66, 67, 69, 70, 72,
                  73, 75, 76, 78, 79, 81, 82, 84, 85, 87, 88, 90, 91, 93, 94,
                  96, 97, 99, 100, 102, 103, 105, 106, 108, 109, 111, 112,
                  114, 115, 117, 118

      * Solvation model:               ALPB
        Solvent                        water
        Solvent mass                       1.8000E+01 g/mol
          :  Hamiltonian                  GFN2-xTB          :
 * total energy  :  -201.0089226 Eh     change       -0.1427907E-09 Eh
 * total energy  :  -201.1999486 Eh     change       -0.1910260E+00 Eh
 * total energy  :  -201.2880282 Eh     change       -0.8807961E-01 Eh
 * total energy  :  -201.3388504 Eh     change       -0.5082218E-01 Eh
 * total energy  :  -201.3956085 Eh     change       -0.5675815E-01 Eh
 * total energy  :  -201.4759811 Eh     change       -0.8037257E-01 Eh
 * total energy  :  -201.5450622 Eh     change       -0.6908107E-01 Eh
 * total energy  :  -201.5861693 Eh     change       -0.4110711E-01 Eh
 * total energy  :  -201.6173928 Eh     change       -0.3122348E-01 Eh
 * total energy  :  -201.6420601 Eh     change       -0.2466737E-01 Eh
 * total energy  :  -201.8887502 Eh     change       -0.3275379E-06 Eh
 * total energy  :  -201.8887504 Eh     change       -0.1741230E-06 Eh
 * total energy  :  -201.8887505 Eh     change       -0.1302466E-06 Eh
 * total energy  :  -201.8887507 Eh     change       -0.1314471E-06 Eh
 * total energy  :  -201.8887508 Eh     change       -0.1215706E-06 Eh
 * total energy  :  -201.8887508 Eh     change       -0.2243269E-08 Eh
 * total energy  :  -201.8887508 Eh     change        0.1531890E-07 Eh
 * total energy  :  -201.8887509 Eh     change       -0.1236571E-06 Eh
 * total energy  :  -201.8887509 Eh     change       -0.3936594E-07 Eh
   *** GEOMETRY OPTIMIZATION CONVERGED AFTER 436 ITERATIONS ***

 final structure:
================
118
 xtb: 6.6.0 (conda-forge)
Fe           0.11735482814746       -0.71725845197925        0.21592319703025
O           -1.07006217789602       -1.43569344755175        2.25284548132129
O            1.69509864996725        0.63925276729420        1.53990907070476
O            1.92662111974956       -0.51440112505712       -1.40721258907717
O           -1.15497807775506       -0.03225604125175       -1.84589974000679
O           -1.04586192088936        1.35245318637260        0.89123491661868
O            1.21799593670597       -2.79680946084718        1.00250006678335
H           -2.00182633207801        1.39770666848285        1.04219344398612
H           -0.84585295260507        1.98571200536094        0.18945869309559
H            1.44364880687295       -2.65314965417714        1.93594157525409
H            2.05231865401104       -3.01874530890008        0.56394296671402
H           -0.68683724998040       -0.87337497347978        2.94116045545303
H           -2.02344775137061       -1.28699735205539        2.26675046866521
H            2.69209181156112        0.05413174753901       -1.25344994440622
H            2.24893884715482       -1.24938960203817       -1.94260426359105
H            1.81156753452555        1.50387596256447        1.11072307074741
H            2.56875012909156        0.20101707523947        1.51553378060934
H           -2.11970261935623        0.05298830663005       -1.74540016911985
H           -1.01203576677607       -0.83910229844688       -2.34682457599855
O           -3.77734783590869        1.42022851088919        1.42870687497041
O            3.68859466951147       -3.04660657152275       -0.16417318133054
O           -3.90067015778546       -0.05113063182449       -1.82680402771977
O           -0.92983353475765       -2.69465205073631       -0.90633907015496
O           -5.44508162756040        1.55528661593458       -0.54650116971832
O           -3.58856707772934       -2.31203192351487       -0.39286161285546
O            2.29695817291378       -1.88120101683808        3.37981029194702
O            3.99621646749719       -0.75174603569219        1.23403549613488
O            2.14880266254083        2.80809455498836       -0.01567103531595
O           -0.09019283876180        2.47295979980951       -1.49116249850567
O            4.13729040162591        1.11690041858823       -0.69275809196402
O            3.31152639139690       -2.54026181096505       -2.80443993390908
H           -3.73629388806205       -1.50130274301622       -0.92655043221124
H           -4.14176390418982       -3.00846582780862       -0.77914783080570
H           -3.82944902309080        0.47305712487327        1.66964108781351
H           -2.28311302524359       10.71093572276016        5.09134852392645
H           -6.18975211703114        1.01899184637640       -0.27047726209354
H           -4.40985658255894        1.52599757927002        0.65655751241377
H           -0.48946359193132        3.07988086102093       -2.12859203810247
H           -0.31869442461762        1.56897667855379       -1.77430219886489
H           -4.26092434501954       -0.09233385588391       -2.72306848228604
H           -4.48677575758090        0.60596727594035       -1.33217536839206
H           -1.86952516994423       -2.62809480747220       -0.65939830208563
H           -0.53718638949295       -3.35630160698292       -0.33199646125148
H            4.06784488475454       -2.23643863912115       -3.33134045901719
H            3.08219040448929       -3.42063342193549       -3.13853866175657
H            4.96903282168445        1.58565716412316       -0.83749317643331
H            3.47514236408649        1.79913373505114       -0.44863696144104
H            2.22880339480023        3.75856490984643        0.13753825624368
H            1.37803076248568        2.67751867539501       -0.60551454351335
H            4.18038188933326       -0.07495376853460        0.54688515974105
H            3.68467652662324       -1.53146124104869        0.72244124623679
H            1.66091643389948       -1.20600580611252        3.66945058461318
H            2.95309445865412       -1.41494600715870        2.84127350501766
H            4.62306606417683       -3.20740364042585        0.01460817553774
H            3.60033883677333       -2.83411071238674       -1.11569219669485
O            0.49388522377254        0.19941271212070        3.86587983741684
H            0.28082524339131        0.96942073626823        4.39247443466938
H            0.85848434998529        0.52490361403103        3.00873287219965
O           -2.06655894821014       -3.45126548691058        6.96146204881769
H           -1.14834173881086       -3.47086034234790        6.66999546416842
H           -2.37825939714686       -2.54961478625728        6.83629446798794
O            0.29078749783184        5.80482270837168        4.99154479706222
H           -0.49532694483325        5.48833529724618        4.53342175526820
H            0.10006797276454        6.69634580255475        5.29127742424101
O            3.47197181542495       -3.27719555095093        5.42449063232403
H            3.24638288719567       -4.18985783769780        5.22648715986606
H            3.04376259085862       -2.74448013783792        4.71697391083062
O           -4.63915564821417        2.81038966734442        3.61226690262548
H           -4.34680510738676        2.35829592204963        2.78710734234042
H           -4.04433987006606        2.49477170996966        4.29984817434382
O            5.25000427916814        2.94032010835459        4.50840943862645
H            5.27363383864073        2.03181892711731        4.82625713270063
H            4.34850319054473        3.25465115192895        4.63054779696352
O           -1.99760612743128       -6.65675132295163        2.69975920721917
H           -1.11724572445376       -6.42508721268154        3.01361001249892
H           -2.56641347099883       -5.90739542319402        2.90382987759105
O           -2.75165985426447        7.31478752384135        0.66561598554467
H           -3.22006496076939        6.51486932258893        0.92873322191051
H           -2.89343765071220        7.96685377025677        1.35583912903817
O            6.21741778946512       -2.45293595554191        1.05277101468436
H            6.57960222111952       -2.75175831698022        1.88861257166260
H            5.60019504573583       -1.72307321004185        1.26529054671123
O           -3.85344110711262       -1.26070665032881        2.05607350727612
H           -3.77869243354605       -1.69480084504248        1.17419314911859
H           -4.54713833866927       -1.71244021977090        2.53923382562538
O            2.43343693588321        5.59874126056626        0.41524015109984
H            3.02438391601796        5.91282331946599        1.10513475377819
H            1.63230969561098        6.12688671853230        0.46408106121554
O            3.00467518434915       -5.28004778456535       -3.43071771692881
H            3.81868512116146       -5.78201997964995       -3.52105349286701
H            2.38917781313361       -5.82105287323390       -2.92659289071284
O           -6.64143854896416        3.61897188292163       -1.45599567658268
H           -6.13202664936040        2.79657529996593       -1.11487336529235
H           -6.80808631435030        4.14444533421755       -0.66963855223394
O            6.52878161798131        2.64001297621892       -0.74493439788455
H            7.00427523859405        2.60000136077622        0.09010929212191
H            6.56625251988160        3.54878322220723       -1.05526349879214
O           -4.86483765528152       -4.49091252275824       -1.61166015603529
H           -4.62970364189454       -5.35164139518135       -1.25118048836544
H           -4.78949195795579       -4.55026238739625       -2.56903169182160
O           -1.37242537112953        4.33649875652194       -3.21198918098627
H           -1.13113826940500        5.26463278960049       -3.15260368578242
H           -2.32351613010940        4.28394163483207       -3.08315143843454
O            5.57004220815769       -1.63189616291406       -4.20937661978251
H            6.39905826344346       -1.59231667530108       -3.72314595830606
H            5.49645201269314       -0.81784607318675       -4.71590821655966
O           -4.84638548503590       -0.13353491122370       -4.53411278746586
H           -4.52066065840001       -0.69593758911295       -5.24489120048155
H           -5.15405357519971        0.68453396767256       -4.93207618936746
O            3.69521006951117        4.10409467982919       -4.95246539967466
H            3.25107184128004        3.25826009239587       -4.82539894071097
H            3.38051609876772        4.68716071219906       -4.25485205769797
O           -1.62100451385905       -4.20915230514940       -6.24365844897669
H           -1.13689517996721       -4.24176015764403       -5.41089060028390
H           -1.18435837384595       -3.55087226623066       -6.79255759958189
O           -0.61150777826359        1.13030007701152       -7.40703345645762
H           -0.42909651329561        1.02616489995494       -6.46624557753938
H           -0.54146125775487        2.06889424364475       -7.60148832868730

          :  Hamiltonian                  GFN2-xTB          :
         :: total energy            -201.888750932141 Eh    ::
         :: gradient norm              0.000051268727 Eh/a0 ::
         :: HOMO-LUMO gap              7.109958164438 eV    ::
         :: SCC energy              -203.109095982686 Eh    ::
         :: -> dispersion             -0.063641435168 Eh    ::
         :: -> Gsolv                  -0.756141856037 Eh    ::
         :: repulsion energy           1.216462419599 Eh    ::

    * Orbital Energies and Occupations

         #    Occupation            Energy/Eh            Energy/eV
      -------------------------------------------------------------
         1        2.0000           -0.6656730             -18.1139
       ...           ...                  ...                  ...
       150        2.0000           -0.3996525             -10.8751
       151        2.0000           -0.3988255             -10.8526
       152        2.0000           -0.3956198             -10.7654
       153        2.0000           -0.3938658             -10.7176
       154        2.0000           -0.3905008             -10.6261
       155        2.0000           -0.3903800             -10.6228
       156        2.0000           -0.3579468              -9.7402
       157        2.0000           -0.3566199              -9.7041
       158        1.5780           -0.3110079              -8.4630
       159        1.4181           -0.3103948              -8.4463
       160        1.0039           -0.3054366              -8.3114
       161        1.0000           -0.3007717              -8.1844
       162        1.0000           -0.2969361              -8.0800 (HOMO)
       163                         -0.0356499              -0.9701 (LUMO)
       164                          0.0132749               0.3612
       165                          0.0401223               1.0918
       166                          0.0461326               1.2553
       167                          0.0715340               1.9465
       168                          0.0726053               1.9757
       169                          0.0769652               2.0943
       170                          0.0873508               2.3769
       171                          0.0949076               2.5826
       172                          0.1013553               2.7580
       173                          0.1062087               2.8901
       ...                                ...                  ...
       243                          0.9411872              25.6110
      -------------------------------------------------------------
                  HL-Gap            0.2612862 Eh            7.1100 eV

     #   Z          covCN         q      C6AA      α(0)
     1  26 Fe       0.630     1.149   391.842    57.362
     2   8 O        1.707    -0.610    25.390     6.803
     3   8 O        1.704    -0.636    26.008     6.885
     4   8 O        1.728    -0.612    25.424     6.808
     5   8 O        1.672    -0.614    25.493     6.816
     6   8 O        1.704    -0.607    25.303     6.791
     7   8 O        1.695    -0.626    25.784     6.856
     8   1 H        0.804     0.331     0.636     1.252
     9   1 H        0.805     0.345     0.601     1.217
    10   1 H        0.804     0.354     0.579     1.196
    11   1 H        0.804     0.356     0.574     1.190
    12   1 H        0.805     0.347     0.594     1.211
    13   1 H        0.805     0.336     0.622     1.239
    14   1 H        0.805     0.359     0.568     1.184
    15   1 H        0.805     0.349     0.591     1.208
    16   1 H        0.804     0.360     0.565     1.181
    17   1 H        0.803     0.367     0.550     1.165
    18   1 H        0.804     0.346     0.597     1.214
    19   1 H        0.805     0.360     0.565     1.181
    20   8 O        1.601    -0.687    27.375     7.061
    21   8 O        1.608    -0.665    26.806     6.988
    22   8 O        1.601    -0.661    26.703     6.974
    23   8 O        1.681    -0.627    25.798     6.857
    24   8 O        0.826    -0.929    35.822     8.024
    25   8 O        1.607    -0.650    26.411     6.936
    26   8 O        1.608    -0.665    26.787     6.985
    27   8 O        1.605    -0.699    27.689     7.102
    28   8 O        1.608    -0.656    26.562     6.956
    29   8 O        1.608    -0.663    26.743     6.980
    30   8 O        1.607    -0.667    26.857     6.994
    31   8 O        1.609    -0.646    26.307     6.922
    32   1 H        0.803     0.341     0.611     1.228
    33   1 H        0.804     0.326     0.647     1.263
    34   1 H        0.803     0.336     0.622     1.239
    35   1 H        0.000    -1.000  3074.319   101.384
    36   1 H        0.806     0.220     1.021     1.587
    37   1 H        0.801     0.308     0.699     1.314
    38   1 H        0.805     0.318     0.670     1.286
    39   1 H        0.804     0.361     0.564     1.180
    40   1 H        0.805     0.313     0.684     1.299
    41   1 H        0.802     0.311     0.688     1.303
    42   1 H        0.804     0.345     0.600     1.217
    43   1 H        0.805     0.354     0.578     1.194
    44   1 H        0.804     0.328     0.643     1.259
    45   1 H        0.804     0.332     0.631     1.248
    46   1 H        0.805     0.317     0.673     1.289
    47   1 H        0.803     0.352     0.583     1.200
    48   1 H        0.805     0.319     0.666     1.282
    49   1 H        0.803     0.355     0.578     1.194
    50   1 H        0.803     0.346     0.597     1.214
    51   1 H        0.802     0.358     0.570     1.186
    52   1 H        0.804     0.350     0.587     1.204
    53   1 H        0.804     0.352     0.584     1.200
    54   1 H        0.805     0.333     0.630     1.247
    55   1 H        0.803     0.345     0.601     1.218
    56   8 O        1.607    -0.699    27.696     7.103
    57   1 H        0.806     0.337     0.620     1.237
    58   1 H        0.802     0.368     0.549     1.164
    59   8 O        1.610    -0.732    28.564     7.213
    60   1 H        0.805     0.371     0.542     1.156
    61   1 H        0.805     0.361     0.563     1.179
    62   8 O        1.610    -0.707    27.886     7.127
    63   1 H        0.805     0.369     0.545     1.160
    64   1 H        0.805     0.337     0.619     1.235
    65   8 O        1.608    -0.733    28.593     7.217
    66   1 H        0.805     0.345     0.599     1.216
    67   1 H        0.802     0.347     0.595     1.212
    68   8 O        1.607    -0.736    28.674     7.227
    69   1 H        0.802     0.336     0.623     1.240
    70   1 H        0.805     0.355     0.576     1.192
    71   8 O        1.610    -0.729    28.504     7.206
    72   1 H        0.805     0.366     0.552     1.167
    73   1 H        0.805     0.364     0.557     1.173
    74   8 O        1.610    -0.733    28.595     7.217
    75   1 H        0.805     0.367     0.550     1.165
    76   1 H        0.805     0.366     0.553     1.168
    77   8 O        1.610    -0.710    27.990     7.140
    78   1 H        0.805     0.369     0.545     1.159
    79   1 H        0.805     0.341     0.609     1.226
    80   8 O        1.608    -0.708    27.920     7.132
    81   1 H        0.805     0.337     0.619     1.236
    82   1 H        0.803     0.352     0.584     1.200
    83   8 O        1.607    -0.686    27.343     7.057
    84   1 H        0.802     0.353     0.581     1.198
    85   1 H        0.806     0.344     0.603     1.220
    86   8 O        1.611    -0.690    27.445     7.071
    87   1 H        0.805     0.357     0.571     1.187
    88   1 H        0.805     0.353     0.582     1.198
    89   8 O        1.610    -0.698    27.658     7.098
    90   1 H        0.805     0.353     0.581     1.197
    91   1 H        0.805     0.365     0.555     1.170
    92   8 O        1.597    -0.748    29.018     7.270
    93   1 H        0.803     0.312     0.686     1.301
    94   1 H        0.805     0.322     0.657     1.273
    95   8 O        1.610    -0.696    27.606     7.091
    96   1 H        0.805     0.359     0.567     1.183
    97   1 H        0.805     0.356     0.575     1.191
    98   8 O        1.610    -0.704    27.805     7.117
    99   1 H        0.805     0.364     0.556     1.172
   100   1 H        0.805     0.363     0.558     1.174
   101   8 O        1.611    -0.688    27.391     7.064
   102   1 H        0.805     0.354     0.578     1.194
   103   1 H        0.805     0.354     0.578     1.194
   104   8 O        1.610    -0.699    27.672     7.100
   105   1 H        0.805     0.361     0.562     1.178
   106   1 H        0.805     0.361     0.563     1.178
   107   8 O        1.610    -0.704    27.819     7.119
   108   1 H        0.805     0.371     0.542     1.156
   109   1 H        0.805     0.350     0.587     1.204
   110   8 O        1.610    -0.736    28.678     7.228
   111   1 H        0.805     0.375     0.534     1.147
   112   1 H        0.805     0.361     0.563     1.179
   113   8 O        1.610    -0.733    28.589     7.217
   114   1 H        0.805     0.375     0.534     1.148
   115   1 H        0.805     0.358     0.570     1.186
   116   8 O        1.610    -0.729    28.505     7.206
   117   1 H        0.805     0.377     0.530     1.143
   118   1 H        0.805     0.353     0.581     1.198

Wiberg/Mayer (AO) data.
largest (>0.10) Wiberg bond orders for each atom

     #   Z sym  total        # sym  WBO       # sym  WBO       # sym  WBO
 ---------------------------------------------------------------------------
     1  26 Fe   1.382 --     4 O    0.210     7 O    0.201     3 O    0.192
                             2 O    0.191     6 O    0.188    23 O    0.171
                             5 O    0.161
     2   8 O    1.932 --    13 H    0.851    12 H    0.840     1 Fe   0.191
     3   8 O    1.960 --    16 H    0.816    17 H    0.797     1 Fe   0.192
     4   8 O    1.943 --    15 H    0.847    14 H    0.840     1 Fe   0.210
     5   8 O    1.939 --    19 H    0.858    18 H    0.833     1 Fe   0.161
     6   8 O    1.934 --     9 H    0.847     8 H    0.847     1 Fe   0.188
     7   8 O    1.928 --    11 H    0.834    10 H    0.831     1 Fe   0.201
     8   1 H    0.889 --     6 O    0.847
     9   1 H    0.881 --     6 O    0.847
    10   1 H    0.874 --     7 O    0.831
    11   1 H    0.872 --     7 O    0.834
    12   1 H    0.879 --     2 O    0.840
    13   1 H    0.886 --     2 O    0.851
    14   1 H    0.870 --     4 O    0.840
    15   1 H    0.877 --     4 O    0.847
    16   1 H    0.870 --     3 O    0.816
    17   1 H    0.865 --     3 O    0.797
    18   1 H    0.879 --     5 O    0.833
    19   1 H    0.870 --     5 O    0.858
    20   8 O    1.853 --    34 H    0.837    37 H    0.791
    21   8 O    1.852 --    54 H    0.863    55 H    0.821
    22   8 O    1.862 --    40 H    0.872    41 H    0.776
    23   8 O    1.908 --    43 H    0.864    42 H    0.829     1 Fe   0.171
    24   8 O    1.493 --    36 H    0.949    93 H    0.146    41 H    0.121
                            37 H    0.109
    25   8 O    1.889 --    33 H    0.854    32 H    0.823
    26   8 O    1.868 --    53 H    0.854    52 H    0.841
    27   8 O    1.855 --    50 H    0.815    51 H    0.809
    28   8 O    1.867 --    48 H    0.861    49 H    0.820
    29   8 O    1.843 --    38 H    0.862    39 H    0.826
    30   8 O    1.842 --    46 H    0.865    47 H    0.817
    31   8 O    1.860 --    45 H    0.857    44 H    0.854
    32   1 H    0.884 --    25 O    0.823
    33   1 H    0.893 --    25 O    0.854
    34   1 H    0.887 --    20 O    0.837
    35   1 H    0.000
    36   1 H    0.952 --    24 O    0.949
    37   1 H    0.905 --    20 O    0.791    24 O    0.109
    38   1 H    0.899 --    29 O    0.862
    39   1 H    0.870 --    29 O    0.826
    40   1 H    0.902 --    22 O    0.872
    41   1 H    0.903 --    22 O    0.776    24 O    0.121
    42   1 H    0.881 --    23 O    0.829
    43   1 H    0.874 --    23 O    0.864
    44   1 H    0.892 --    31 O    0.854
    45   1 H    0.889 --    31 O    0.857
    46   1 H    0.900 --    30 O    0.865
    47   1 H    0.876 --    30 O    0.817
    48   1 H    0.898 --    28 O    0.861
    49   1 H    0.874 --    28 O    0.820
    50   1 H    0.880 --    27 O    0.815
    51   1 H    0.872 --    27 O    0.809
    52   1 H    0.877 --    26 O    0.841
    53   1 H    0.876 --    26 O    0.854
    54   1 H    0.889 --    21 O    0.863
    55   1 H    0.881 --    21 O    0.821
    56   8 O    1.805 --    57 H    0.877    58 H    0.798
    57   1 H    0.887 --    56 O    0.877
    58   1 H    0.865 --    56 O    0.798
    59   8 O    1.732 --    61 H    0.870    60 H    0.862
    60   1 H    0.863 --    59 O    0.862
    61   1 H    0.870 --    59 O    0.870
    62   8 O    1.750 --    64 H    0.886    63 H    0.864
    63   1 H    0.864 --    62 O    0.864
    64   1 H    0.886 --    62 O    0.886
    65   8 O    1.731 --    66 H    0.881    67 H    0.823
    66   1 H    0.881 --    65 O    0.881
    67   1 H    0.880 --    65 O    0.823
    68   8 O    1.729 --    70 H    0.873    69 H    0.826
    69   1 H    0.887 --    68 O    0.826
    70   1 H    0.874 --    68 O    0.873
    71   8 O    1.734 --    73 H    0.868    72 H    0.866
    72   1 H    0.866 --    71 O    0.866
    73   1 H    0.868 --    71 O    0.868
    74   8 O    1.731 --    76 H    0.866    75 H    0.865
    75   1 H    0.865 --    74 O    0.865
    76   1 H    0.866 --    74 O    0.866
    77   8 O    1.747 --    79 H    0.884    78 H    0.864
    78   1 H    0.864 --    77 O    0.864
    79   1 H    0.884 --    77 O    0.884
    80   8 O    1.762 --    81 H    0.884    82 H    0.832
    81   1 H    0.886 --    80 O    0.884
    82   1 H    0.876 --    80 O    0.832
    83   8 O    1.828 --    85 H    0.874    84 H    0.809
    84   1 H    0.875 --    83 O    0.809
    85   1 H    0.882 --    83 O    0.874
    86   8 O    1.784 --    88 H    0.874    87 H    0.870
    87   1 H    0.872 --    86 O    0.870
    88   1 H    0.876 --    86 O    0.874
    89   8 O    1.777 --    90 H    0.873    91 H    0.865
    90   1 H    0.875 --    89 O    0.873
    91   1 H    0.867 --    89 O    0.865
    92   8 O    1.715 --    94 H    0.895    93 H    0.753
    93   1 H    0.903 --    92 O    0.753    24 O    0.146
    94   1 H    0.896 --    92 O    0.895
    95   8 O    1.777 --    97 H    0.871    96 H    0.869
    96   1 H    0.871 --    95 O    0.869
    97   1 H    0.873 --    95 O    0.871
    98   8 O    1.778 --   100 H    0.866    99 H    0.866
    99   1 H    0.867 --    98 O    0.866
   100   1 H    0.868 --    98 O    0.866
   101   8 O    1.788 --   103 H    0.873   102 H    0.872
   102   1 H    0.874 --   101 O    0.872
   103   1 H    0.874 --   101 O    0.873
   104   8 O    1.782 --   106 H    0.868   105 H    0.867
   105   1 H    0.869 --   104 O    0.867
   106   1 H    0.870 --   104 O    0.868
   107   8 O    1.768 --   109 H    0.875   108 H    0.859
   108   1 H    0.862 --   107 O    0.859
   109   1 H    0.877 --   107 O    0.875
   110   8 O    1.729 --   112 H    0.869   111 H    0.859
   111   1 H    0.860 --   110 O    0.859
   112   1 H    0.870 --   110 O    0.869
   113   8 O    1.731 --   115 H    0.872   114 H    0.859
   114   1 H    0.860 --   113 O    0.859
   115   1 H    0.872 --   113 O    0.872
   116   8 O    1.733 --   118 H    0.875   117 H    0.858
   117   1 H    0.858 --   116 O    0.858
   118   1 H    0.876 --   116 O    0.875
 ---------------------------------------------------------------------------

molecular dipole:
                 x           y           z       tot (Debye)
 q only:       12.967     -22.061     -10.402
   full:       12.215     -20.762     -10.802      67.103

           -------------------------------------------------
          | TOTAL ENERGY             -201.888750932141 Eh   |
          | GRADIENT NORM               0.000051268727 Eh/α |
          | HOMO-LUMO GAP               7.109958164438 eV   |
           -------------------------------------------------

 * finished run on 2024/05/10 at 18:00:49.001
