   * xtb version 6.6.0 (conda-forge) compiled by 'runner@Mac-1676020848589.local' on 2023-02-10
          program call               : xtb Fe_39H2O.xyz --opt extreme --gfn2 --chrg 3 --uhf 6 --alpb water

   ID    Z sym.   atoms
    1   26 Fe     1
    2    8 O      2-7, 20-31, 56, 59, 62, 65, 68, 71, 74, 77, 80, 83, 86, 89,
                  92, 95, 98, 101, 104, 107, 110, 113, 116
    3    1 H      8-19, 32-55, 57, 58, 60, 61, 63, 64, 66, 67, 69, 70, 72,
                  73, 75, 76, 78, 79, 81, 82, 84, 85, 87, 88, 90, 91, 93, 94,
                  96, 97, 99, 100, 102, 103, 105, 106, 108, 109, 111, 112,
                  114, 115, 117, 118

      * Solvation model:               ALPB
        Solvent                        water
        Solvent mass                       1.8000E+01 g/mol
          :  Hamiltonian                  GFN2-xTB          :
 * total energy  :  -200.5372070 Eh     change       -0.5678373E-09 Eh
 * total energy  :  -200.6915285 Eh     change       -0.1543215E+00 Eh
 * total energy  :  -200.7352772 Eh     change       -0.4374862E-01 Eh
 * total energy  :  -200.7538882 Eh     change       -0.1861109E-01 Eh
 * total energy  :  -200.7664985 Eh     change       -0.1261029E-01 Eh
 * total energy  :  -200.7777668 Eh     change       -0.1126821E-01 Eh
 * total energy  :  -200.7841350 Eh     change       -0.6368267E-02 Eh
 * total energy  :  -200.7917297 Eh     change       -0.7594650E-02 Eh
 * total energy  :  -200.7897078 Eh     change        0.2021895E-02 Eh
 * total energy  :  -200.8011222 Eh     change       -0.1141446E-01 Eh
 * total energy  :  -200.9001536 Eh     change       -0.2900944E-06 Eh
 * total energy  :  -200.9001538 Eh     change       -0.2451700E-06 Eh
 * total energy  :  -200.9001540 Eh     change       -0.2430116E-06 Eh
 * total energy  :  -200.9001543 Eh     change       -0.2327627E-06 Eh
 * total energy  :  -200.9001544 Eh     change       -0.1629292E-06 Eh
 * total energy  :  -200.9001545 Eh     change       -0.1051860E-06 Eh
 * total energy  :  -200.9001546 Eh     change       -0.9149122E-07 Eh
 * total energy  :  -200.9001547 Eh     change       -0.1004258E-06 Eh
 * total energy  :  -200.9001548 Eh     change       -0.4052569E-07 Eh
   *** GEOMETRY OPTIMIZATION CONVERGED AFTER 469 ITERATIONS ***

 final structure:
================
118
 xtb: 6.6.0 (conda-forge)
Fe           0.22132881465804        0.21805842993045        0.37975832322636
O           -1.62117612641157       -0.62116683705358        1.20666050610644
O            1.43880810427280        1.56396604405122        1.63891869974376
O            2.08274995255738        0.43143043536787       -0.85784603209375
O           -0.46287878052929        0.47271612606815       -1.83730810276356
O           -1.08163758400821        2.07887255887688        0.46169976611810
O            1.23557446148366       -1.25148529789197        1.78145222906573
H           -2.02378999747944        1.95719588764754        0.23882936075011
H           -0.73645980433363        2.72682539827313       -0.18038393324135
H            1.44452011148616       -0.97742843717830        2.69567527668180
H            2.09003938952048       -1.58019044322010        1.43054841755166
H           -2.10892501735043       -0.05639452737606        1.83004162181697
H           -2.08687524515638       -1.47916401791090        1.20689125967184
H            2.85510176885523        0.99557047851723       -0.66705724734389
H            2.41814820138682       -0.34354735260895       -1.34035409130844
H            1.60171302316774        2.45739778669751        1.28709910472045
H            2.32639130398810        1.20025123395362        1.85877745614700
H           -1.42812858347696        0.30448651350798       -1.94318680117571
H           -0.01430216745613       -0.12019101234536       -2.44295513846347
O           -2.78727273063510        1.31815714790134        2.68780825558132
O            3.59426122321476       -1.95639795105875        0.70020363658691
O           -3.03439028436652       -0.11672001243051       -1.86520170976148
O            0.18141355839049       -1.97313527455546       -0.58219485486283
O           -3.74317252771824        1.53710597424967        0.13986869078482
O           -2.22175820826452       -2.64297492211437       -1.49171899605722
O            2.34438928691197       -0.43875134283286        4.10141588947046
O            3.89516196662137        0.50777659136967        1.92620246820284
O            2.03827087625934        3.76628931634412        0.14728796515541
O            0.10947469597024        3.17516671415447       -1.67292765087712
O            4.12159407956246        2.12492410245765       -0.24691181032704
O            2.58114795790143       -2.01341671263168       -1.83519365081420
H           -2.58148392025510       -1.73462012680004       -1.62180866488592
H           -2.36219893068497       -3.12359587350603       -2.31700581788459
H           -3.12321348088192        1.49278243209213        3.57391219279577
H           -2.04909065800093        1.92071245290792        2.52385349287303
H           -4.53220185812103        2.07813901735763        0.02662486139293
H           -3.68218237422337        1.31325916110282        1.08581349152542
H           -0.35595218668995        3.69116449772604       -2.34276472638725
H            0.07544261152840        2.24188702048607       -1.95203295073479
H           -3.68971765389032        0.06284549781691       -2.55080203712338
H           -3.32753920072118        0.36912841809998       -1.06598400189377
H           -0.68562040498427       -2.25793253506215       -0.95504870615186
H            0.33108199566047       -2.52091371661464        0.19260723046447
H            2.67280842182723       -2.46904575463165       -2.67827758130080
H            1.66831616542215       -2.17121781950146       -1.50909934805452
H            4.84094785332708        2.50101940241048       -0.76354493062041
H            3.45590807410544        2.83567905671340       -0.10257875132667
H            2.08688101733170        4.72636398681757        0.20614230773502
H            1.41691597379335        3.56156504693889       -0.58126193907942
H            4.20034273913203        1.10956390920290        1.22424407453648
H            3.86913201746021       -0.37021476569297        1.50316872937179
H            2.03837149067065        0.24128324701516        4.71623732537418
H            3.05691457293295       -0.03605964111643        3.58202044222924
H            4.07324134338589       -2.77052308997991        0.88741518689978
H            3.37773304699598       -1.97796673410108       -0.25255978006103
O            1.57069121456734        1.48098264028597        6.06194957027085
H            2.06033917032205        1.50503130573569        6.88591631145464
H            0.64016407245611        1.60224628557112        6.27251085560214
O           -1.79278564066771       -2.40435488143234        6.73166053847310
H           -1.73443874000272       -2.39455827287507        5.76823622544903
H           -0.95137598054873       -2.73580684344910        7.05679614222977
O           -0.47876584297564        6.18318802958715        4.87179318262144
H            0.01578527549768        5.66786579014076        4.22264992383811
H            0.16652744004241        6.61174706600627        5.43843963652440
O            1.66159743025830       -5.84068322367129        4.40183919714213
H            2.22135664120863       -5.10977117242681        4.68343017416309
H            1.11199887060864       -5.50729999363749        3.68283931781426
O           -3.85549605243969        2.04114649756542        5.22007488185098
H           -3.80089129918238        2.90962766524422        5.62718155159093
H           -4.33411149463170        1.46366743103759        5.81894999806206
O            5.17317047352139        5.24489642064439        3.93348012786208
H            5.85987177829565        4.77469281820249        3.45092308640770
H            4.54541044565199        4.57974788061297        4.23832753853715
O           -2.81953588066370       -8.25357817478951        2.73242106343416
H           -2.69649092360467       -8.10809995508080        3.67566089827912
H           -3.14347475072827       -9.15109767061547        2.62304994780622
O           -3.43261216235647        7.12761897982983        0.27071001604084
H           -3.11316728873760        6.49670004764389        0.92692120878506
H           -3.73104193590582        7.90437020987434        0.74814511476069
O            4.91434486242482       -4.46097744470698        0.97204560949894
H            4.56034303838582       -5.25162199261980        0.55500843210647
H            5.64677533787928       -4.72745660280201        1.53086852525361
O           -3.00088036714251       -2.94556638968627        1.07838703617457
H           -2.83730411345600       -2.99921886361452        0.11387356225469
H           -2.89508187009058       -3.82441447901544        1.44171829769606
O            2.12482040978509        6.62498544321286        0.11967497406331
H            2.83344205728724        7.18424613374268        0.44436347700667
H            1.36575394416317        7.18740566695867       -0.05630899827407
O            0.74504341762822       -7.28673325592790       -1.32226529742006
H            0.85601152464027       -8.23448118086709       -1.22433633442238
H            0.07868986350969       -7.01157447564732       -0.68257819946791
O           -6.11075160109616        3.11484761412980       -0.05895165310579
H           -6.42218664273163        3.60764016697530       -0.82193943501248
H           -6.60708847369936        3.41647349244512        0.70583509174768
O            6.36209102213838        3.21622608827249       -1.66398183758211
H            6.98158596194067        2.67049448642887       -2.15520012604153
H            6.79703336356085        4.04969917592356       -1.46934056673152
O           -2.44350250801449       -3.95490211159233       -3.98053627020069
H           -2.23666890365940       -4.88205655426447       -4.11580625122378
H           -2.22935808923196       -3.49003952510234       -4.79476517129768
O           -1.47482130133900        4.61588303693464       -3.51800888616293
H           -1.39292386528570        5.55660412431596       -3.68389258895282
H           -2.41357248177824        4.40690449100226       -3.49056762217771
O            2.52265193588934       -3.27777493875124       -4.37519990102986
H            2.40745768720827       -4.21901307640620       -4.52371367353566
H            2.41271855709420       -2.83328638807332       -5.21992627296474
O           -5.09023900405134        0.23080461977267       -3.76683469453758
H           -4.98987514784200        0.21006276545520       -4.72159752949989
H           -5.91566567835466       -0.20958875736767       -3.54940143323616
O            3.35541476308090        2.63329407796503       -5.75347177710892
H            3.46240570930008        1.84599037153936       -5.20707256436736
H            3.29467053515363        3.38099650642126       -5.15033922290280
O            0.03610149242792       -5.06166959168947       -8.52362092427898
H            0.25755706028852       -5.81006878047241       -9.08362806804385
H           -0.39876387796704       -4.40765207049226       -9.07963812732701
O           -0.88955376417413        0.29685041614451       -7.17294315010714
H           -0.19575122329721        0.36413111452500       -7.83313316518391
H           -0.93833175187742        1.15002327558151       -6.72765187250493

          :  Hamiltonian                  GFN2-xTB          :
         :: total energy            -200.900154773852 Eh    ::
         :: gradient norm              0.000047887144 Eh/a0 ::
         :: HOMO-LUMO gap              7.925598572948 eV    ::
         :: SCC energy              -202.157719443411 Eh    ::
         :: -> dispersion             -0.049913751031 Eh    ::
         :: -> Gsolv                  -0.934478923689 Eh    ::
         :: repulsion energy           1.254468785243 Eh    ::

    * Orbital Energies and Occupations

         #    Occupation            Energy/Eh            Energy/eV
      -------------------------------------------------------------
         1        2.0000           -0.6670042             -18.1501
       ...           ...                  ...                  ...
       149        2.0000           -0.3994184             -10.8687
       150        2.0000           -0.3979385             -10.8285
       151        2.0000           -0.3978706             -10.8266
       152        2.0000           -0.3971745             -10.8077
       153        2.0000           -0.3963860             -10.7862
       154        2.0000           -0.3948174             -10.7435
       155        2.0000           -0.3920291             -10.6677
       156        2.0000           -0.3902120             -10.6182
       157        1.0000           -0.3501007              -9.5267
       158        1.0000           -0.3472289              -9.4486
       159        1.0000           -0.3341963              -9.0939
       160        1.0000           -0.3258300              -8.8663
       161        1.0000           -0.3167300              -8.6187 (HOMO)
       162                         -0.0254696              -0.6931 (LUMO)
       163                          0.0253281               0.6892
       164                          0.0433402               1.1793
       165                          0.0620361               1.6881
       166                          0.0759767               2.0674
       167                          0.0837784               2.2797
       168                          0.0876875               2.3861
       169                          0.0963080               2.6207
       170                          0.0977736               2.6606
       171                          0.0990672               2.6958
       172                          0.1092540               2.9730
       ...                                ...                  ...
       243                          1.2578198              34.2270
      -------------------------------------------------------------
                  HL-Gap            0.2912604 Eh            7.9256 eV

     #   Z          covCN         q      C6AA      α(0)
     1  26 Fe       2.228     1.678     4.558     6.887
     2   8 O        2.046    -0.625    25.693     6.846
     3   8 O        2.013    -0.629    25.795     6.859
     4   8 O        1.962    -0.631    25.866     6.869
     5   8 O        1.840    -0.633    25.921     6.875
     6   8 O        1.922    -0.634    25.925     6.876
     7   8 O        1.925    -0.636    25.992     6.885
     8   1 H        0.803     0.383     0.518     1.130
     9   1 H        0.804     0.378     0.528     1.141
    10   1 H        0.803     0.377     0.529     1.142
    11   1 H        0.803     0.379     0.525     1.139
    12   1 H        0.804     0.381     0.521     1.134
    13   1 H        0.803     0.385     0.513     1.125
    14   1 H        0.804     0.382     0.519     1.131
    15   1 H        0.804     0.379     0.524     1.137
    16   1 H        0.804     0.385     0.513     1.125
    17   1 H        0.802     0.385     0.513     1.126
    18   1 H        0.802     0.387     0.509     1.121
    19   1 H        0.805     0.372     0.539     1.154
    20   8 O        1.610    -0.654    26.506     6.949
    21   8 O        1.608    -0.653    26.496     6.947
    22   8 O        1.608    -0.644    26.265     6.917
    23   8 O        1.770    -0.627    25.782     6.856
    24   8 O        1.609    -0.647    26.341     6.927
    25   8 O        1.607    -0.661    26.706     6.975
    26   8 O        1.609    -0.671    26.955     7.007
    27   8 O        1.607    -0.692    27.505     7.078
    28   8 O        1.608    -0.654    26.506     6.948
    29   8 O        1.608    -0.665    26.800     6.987
    30   8 O        1.607    -0.665    26.789     6.986
    31   8 O        1.608    -0.676    27.072     7.022
    32   1 H        0.802     0.366     0.552     1.167
    33   1 H        0.805     0.319     0.667     1.283
    34   1 H        0.805     0.321     0.662     1.278
    35   1 H        0.805     0.372     0.539     1.153
    36   1 H        0.805     0.316     0.674     1.290
    37   1 H        0.804     0.359     0.567     1.183
    38   1 H        0.805     0.322     0.657     1.274
    39   1 H        0.804     0.371     0.541     1.155
    40   1 H        0.805     0.320     0.664     1.280
    41   1 H        0.803     0.365     0.555     1.171
    42   1 H        0.802     0.382     0.520     1.133
    43   1 H        0.805     0.367     0.551     1.166
    44   1 H        0.805     0.316     0.674     1.289
    45   1 H        0.803     0.374     0.536     1.150
    46   1 H        0.805     0.309     0.694     1.308
    47   1 H        0.802     0.362     0.560     1.176
    48   1 H        0.805     0.315     0.677     1.293
    49   1 H        0.803     0.365     0.555     1.170
    50   1 H        0.804     0.351     0.587     1.203
    51   1 H        0.804     0.354     0.578     1.194
    52   1 H        0.805     0.323     0.656     1.272
    53   1 H        0.804     0.352     0.583     1.199
    54   1 H        0.805     0.315     0.677     1.293
    55   1 H        0.803     0.362     0.560     1.176
    56   8 O        1.611    -0.688    27.403     7.065
    57   1 H        0.805     0.340     0.611     1.228
    58   1 H        0.805     0.366     0.551     1.166
    59   8 O        1.610    -0.740    28.783     7.241
    60   1 H        0.805     0.386     0.511     1.123
    61   1 H        0.805     0.353     0.580     1.196
    62   8 O        1.610    -0.730    28.514     7.207
    63   1 H        0.805     0.386     0.511     1.123
    64   1 H        0.805     0.344     0.602     1.219
    65   8 O        1.610    -0.746    28.950     7.262
    66   1 H        0.805     0.365     0.554     1.169
    67   1 H        0.805     0.380     0.522     1.135
    68   8 O        1.611    -0.689    27.419     7.067
    69   1 H        0.805     0.355     0.576     1.192
    70   1 H        0.805     0.349     0.590     1.207
    71   8 O        1.610    -0.737    28.711     7.232
    72   1 H        0.805     0.360     0.565     1.180
    73   1 H        0.805     0.377     0.530     1.143
    74   8 O        1.610    -0.710    27.983     7.140
    75   1 H        0.805     0.361     0.563     1.178
    76   1 H        0.805     0.349     0.590     1.207
    77   8 O        1.610    -0.722    28.309     7.181
    78   1 H        0.805     0.382     0.520     1.132
    79   1 H        0.805     0.341     0.610     1.227
    80   8 O        1.611    -0.690    27.443     7.070
    81   1 H        0.805     0.361     0.564     1.179
    82   1 H        0.805     0.344     0.602     1.219
    83   8 O        1.609    -0.692    27.501     7.078
    84   1 H        0.803     0.358     0.569     1.185
    85   1 H        0.806     0.336     0.622     1.239
    86   8 O        1.611    -0.690    27.441     7.070
    87   1 H        0.805     0.346     0.599     1.215
    88   1 H        0.805     0.359     0.568     1.184
    89   8 O        1.610    -0.716    28.139     7.159
    90   1 H        0.805     0.341     0.609     1.226
    91   1 H        0.805     0.375     0.533     1.147
    92   8 O        1.611    -0.690    27.432     7.069
    93   1 H        0.805     0.352     0.582     1.199
    94   1 H        0.805     0.352     0.583     1.199
    95   8 O        1.611    -0.690    27.439     7.070
    96   1 H        0.805     0.354     0.579     1.195
    97   1 H        0.805     0.350     0.587     1.204
    98   8 O        1.611    -0.693    27.522     7.081
    99   1 H        0.805     0.348     0.593     1.209
   100   1 H        0.805     0.363     0.558     1.173
   101   8 O        1.611    -0.690    27.450     7.071
   102   1 H        0.805     0.342     0.607     1.224
   103   1 H        0.805     0.367     0.550     1.165
   104   8 O        1.611    -0.692    27.487     7.076
   105   1 H        0.805     0.350     0.589     1.205
   106   1 H        0.805     0.357     0.572     1.188
   107   8 O        1.611    -0.687    27.367     7.061
   108   1 H        0.805     0.353     0.580     1.197
   109   1 H        0.805     0.353     0.582     1.198
   110   8 O        1.610    -0.744    28.915     7.257
   111   1 H        0.805     0.379     0.525     1.138
   112   1 H        0.805     0.365     0.554     1.169
   113   8 O        1.610    -0.711    28.006     7.142
   114   1 H        0.805     0.350     0.587     1.203
   115   1 H        0.805     0.361     0.564     1.179
   116   8 O        1.610    -0.720    28.257     7.174
   117   1 H        0.805     0.347     0.595     1.212
   118   1 H        0.805     0.373     0.536     1.150

Wiberg/Mayer (AO) data.
largest (>0.10) Wiberg bond orders for each atom

     #   Z sym  total        # sym  WBO       # sym  WBO       # sym  WBO
 ---------------------------------------------------------------------------
     1  26 Fe   1.749 --     2 O    0.275     3 O    0.272     4 O    0.259
                             7 O    0.243     6 O    0.242     5 O    0.205
                            23 O    0.184
     2   8 O    1.928 --    12 H    0.800    13 H    0.789     1 Fe   0.275
     3   8 O    1.920 --    16 H    0.803    17 H    0.776     1 Fe   0.272
     4   8 O    1.919 --    15 H    0.800    14 H    0.794     1 Fe   0.259
     5   8 O    1.930 --    19 H    0.855    18 H    0.774     1 Fe   0.205
     6   8 O    1.916 --     9 H    0.801     8 H    0.800     1 Fe   0.242
     7   8 O    1.911 --    10 H    0.800    11 H    0.790     1 Fe   0.243
     8   1 H    0.851 --     6 O    0.800
     9   1 H    0.856 --     6 O    0.801
    10   1 H    0.855 --     7 O    0.800
    11   1 H    0.854 --     7 O    0.790
    12   1 H    0.851 --     2 O    0.800
    13   1 H    0.844 --     2 O    0.789
    14   1 H    0.850 --     4 O    0.794
    15   1 H    0.852 --     4 O    0.800
    16   1 H    0.849 --     3 O    0.803
    17   1 H    0.850 --     3 O    0.776
    18   1 H    0.849 --     5 O    0.774
    19   1 H    0.860 --     5 O    0.855
    20   8 O    1.852 --    34 H    0.865    35 H    0.852
    21   8 O    1.863 --    54 H    0.871    55 H    0.819
    22   8 O    1.901 --    40 H    0.862    41 H    0.810
    23   8 O    1.938 --    43 H    0.855    42 H    0.777     1 Fe   0.184
    24   8 O    1.867 --    36 H    0.870    37 H    0.828
    25   8 O    1.879 --    33 H    0.863    32 H    0.801
    26   8 O    1.818 --    52 H    0.866    53 H    0.852
    27   8 O    1.833 --    51 H    0.831    50 H    0.829
    28   8 O    1.868 --    48 H    0.871    49 H    0.817
    29   8 O    1.855 --    38 H    0.861    39 H    0.822
    30   8 O    1.847 --    46 H    0.873    47 H    0.805
    31   8 O    1.839 --    44 H    0.866    45 H    0.807
    32   1 H    0.866 --    25 O    0.801
    33   1 H    0.898 --    25 O    0.863
    34   1 H    0.897 --    20 O    0.865
    35   1 H    0.861 --    20 O    0.852
    36   1 H    0.900 --    24 O    0.870
    37   1 H    0.871 --    24 O    0.828
    38   1 H    0.896 --    29 O    0.861
    39   1 H    0.862 --    29 O    0.822
    40   1 H    0.898 --    22 O    0.862
    41   1 H    0.867 --    22 O    0.810
    42   1 H    0.853 --    23 O    0.777
    43   1 H    0.865 --    23 O    0.855
    44   1 H    0.900 --    31 O    0.866
    45   1 H    0.860 --    31 O    0.807
    46   1 H    0.904 --    30 O    0.873
    47   1 H    0.869 --    30 O    0.805
    48   1 H    0.901 --    28 O    0.871
    49   1 H    0.867 --    28 O    0.817
    50   1 H    0.877 --    27 O    0.829
    51   1 H    0.874 --    27 O    0.831
    52   1 H    0.896 --    26 O    0.866
    53   1 H    0.876 --    26 O    0.852
    54   1 H    0.901 --    21 O    0.871
    55   1 H    0.869 --    21 O    0.819
    56   8 O    1.783 --    57 H    0.882    58 H    0.864
    57   1 H    0.884 --    56 O    0.882
    58   1 H    0.866 --    56 O    0.864
    59   8 O    1.726 --    61 H    0.875    60 H    0.851
    60   1 H    0.851 --    59 O    0.851
    61   1 H    0.875 --    59 O    0.875
    62   8 O    1.733 --    64 H    0.882    63 H    0.851
    63   1 H    0.851 --    62 O    0.851
    64   1 H    0.882 --    62 O    0.882
    65   8 O    1.721 --    66 H    0.866    67 H    0.855
    66   1 H    0.867 --    65 O    0.866
    67   1 H    0.855 --    65 O    0.855
    68   8 O    1.776 --    70 H    0.875    69 H    0.870
    69   1 H    0.874 --    68 O    0.870
    70   1 H    0.878 --    68 O    0.875
    71   8 O    1.728 --    72 H    0.870    73 H    0.858
    72   1 H    0.870 --    71 O    0.870
    73   1 H    0.858 --    71 O    0.858
    74   8 O    1.748 --    76 H    0.878    75 H    0.870
    75   1 H    0.870 --    74 O    0.870
    76   1 H    0.878 --    74 O    0.878
    77   8 O    1.738 --    79 H    0.884    78 H    0.854
    78   1 H    0.854 --    77 O    0.854
    79   1 H    0.884 --    77 O    0.884
    80   8 O    1.775 --    82 H    0.878    81 H    0.867
    81   1 H    0.870 --    80 O    0.867
    82   1 H    0.882 --    80 O    0.878
    83   8 O    1.798 --    85 H    0.881    84 H    0.820
    84   1 H    0.872 --    83 O    0.820
    85   1 H    0.887 --    83 O    0.881
    86   8 O    1.775 --    87 H    0.878    88 H    0.868
    87   1 H    0.881 --    86 O    0.878
    88   1 H    0.871 --    86 O    0.868
    89   8 O    1.743 --    90 H    0.884    91 H    0.859
    90   1 H    0.884 --    89 O    0.884
    91   1 H    0.859 --    89 O    0.859
    92   8 O    1.776 --    94 H    0.873    93 H    0.873
    93   1 H    0.876 --    92 O    0.873
    94   1 H    0.876 --    92 O    0.873
    95   8 O    1.775 --    97 H    0.874    96 H    0.872
    96   1 H    0.875 --    95 O    0.872
    97   1 H    0.877 --    95 O    0.874
    98   8 O    1.778 --    99 H    0.876   100 H    0.865
    99   1 H    0.879 --    98 O    0.876
   100   1 H    0.868 --    98 O    0.865
   101   8 O    1.781 --   102 H    0.881   103 H    0.863
   102   1 H    0.883 --   101 O    0.881
   103   1 H    0.865 --   101 O    0.863
   104   8 O    1.774 --   105 H    0.875   106 H    0.869
   105   1 H    0.878 --   104 O    0.875
   106   1 H    0.872 --   104 O    0.869
   107   8 O    1.784 --   109 H    0.874   108 H    0.872
   108   1 H    0.875 --   107 O    0.872
   109   1 H    0.876 --   107 O    0.874
   110   8 O    1.722 --   112 H    0.866   111 H    0.856
   111   1 H    0.856 --   110 O    0.856
   112   1 H    0.867 --   110 O    0.866
   113   8 O    1.747 --   114 H    0.877   115 H    0.870
   114   1 H    0.877 --   113 O    0.877
   115   1 H    0.870 --   113 O    0.870
   116   8 O    1.740 --   117 H    0.880   118 H    0.860
   117   1 H    0.880 --   116 O    0.880
   118   1 H    0.861 --   116 O    0.860
 ---------------------------------------------------------------------------

molecular dipole:
                 x           y           z       tot (Debye)
 q only:       -0.536       1.949      -1.295
   full:       -0.848       2.178      -2.058       7.917

           -------------------------------------------------
          | TOTAL ENERGY             -200.900154773852 Eh   |
          | GRADIENT NORM               0.000047887144 Eh/α |
          | HOMO-LUMO GAP               7.925598572948 eV   |
           -------------------------------------------------

 * finished run on 2024/05/10 at 17:55:53.951
